ITEM: TIMESTEP
0
ITEM: NUMBER OF ATOMS
20640
ITEM: BOX BOUNDS fm fm pp
-89.179600 89.179600
-84.079400 84.079400
-5.720880 5.720880
ITEM: ATOMS id type x y z c_peatom
1 2 8.3399474851695e+01 -8.2911598599350e+01 3.9556337513793e+00 -3.1759890261418e+00
2 2 8.8353899100310e+01 -8.2911598599350e+01 3.9670976251489e+00 -2.6447369942832e+00
3 2 8.5876686976003e+01 -8.2911598599350e+01 2.5312283460781e+00 -3.1874919848399e+00
4 2 8.8353899100310e+01 -8.2911598599350e+01 1.1066594515311e+00 -2.6447386643265e+00
5 2 8.6702424350772e+01 -8.0576060610636e+01 3.9690255310378e+00 -3.3267917822576e+00
6 2 7.3490626354464e+01 -8.2911598599350e+01 3.9306387357655e+00 -3.1759643064994e+00
7 2 7.8445050603079e+01 -8.2911598599350e+01 3.9434949689842e+00 -3.1759652990750e+00
8 2 7.5967838478772e+01 -8.2911598599350e+01 2.5069401367718e+00 -3.1759652586131e+00
9 2 7.8445050603079e+01 -8.2911598599350e+01 1.0830567953664e+00 -3.1759661817282e+00
10 2 7.6793575853541e+01 -8.0576060610636e+01 3.9449383143876e+00 -3.4463922921129e+00
11 2 8.3399474851695e+01 -8.2911598599350e+01 1.0951955777615e+00 -3.1759899093326e+00
12 2 8.0922262727387e+01 -8.2911598599350e+01 -3.4100589919886e-01 -3.1759668463654e+00
13 2 8.3399474851695e+01 -8.2911598599350e+01 -1.7652425958563e+00 -3.1759901082362e+00
14 2 8.0922262727387e+01 -8.2911598599350e+01 2.5194322744189e+00 -3.1759662105207e+00
15 2 8.1748000102156e+01 -8.0576060610636e+01 3.9573360073820e+00 -3.4463935491766e+00
16 2 7.9270787977849e+01 -8.0576060610636e+01 2.5210094575418e+00 -3.4463926373797e+00
17 2 8.1748000102156e+01 -8.0576060610636e+01 1.0968978337642e+00 -3.4463933623607e+00
18 2 8.0096525352618e+01 -7.8240522621922e+01 3.9591245645866e+00 -3.4106361142287e+00
19 2 8.8353899100310e+01 -8.2911598599350e+01 -1.7537787220867e+00 -2.6447387593797e+00
20 2 8.5876686976003e+01 -8.2911598599350e+01 -3.1896480011575e+00 -3.1874924396231e+00
21 2 8.8353899100310e+01 -8.2911598599350e+01 -4.6142168957045e+00 -2.6447374868832e+00
22 2 8.5876686976003e+01 -8.2911598599350e+01 -3.2920982753974e-01 -3.1874926421475e+00
23 2 8.6702424350772e+01 -8.0576060610636e+01 1.1085873574200e+00 -3.3267924931658e+00
24 2 8.4225212226464e+01 -8.0576060610636e+01 -3.2739081041164e-01 -3.4639788420890e+00
25 2 8.6702424350772e+01 -8.0576060610636e+01 -1.7518508161978e+00 -3.3267926700047e+00
26 2 8.4225212226464e+01 -8.0576060610636e+01 2.5330473632062e+00 -3.4639785131658e+00
27 2 8.5050949601233e+01 -7.8240522621922e+01 3.9710478656378e+00 -3.4407147434010e+00
28 2 8.2573737476926e+01 -7.8240522621922e+01 2.5349570272004e+00 -3.4106364494261e+00
29 2 8.5050949601233e+01 -7.8240522621922e+01 1.1106096920200e+00 -3.4407145565695e+00
30 2 8.3399474851695e+01 -7.5904984633207e+01 3.9731716547625e+00 -3.4106592149679e+00
31 2 8.7528161725541e+01 -7.8240522621922e+01 -3.1391141412706e-01 -3.1822144568037e+00
32 2 8.7528161725541e+01 -7.8240522621922e+01 2.5465267594907e+00 -3.1822137823810e+00
33 2 8.8353899100310e+01 -7.5904984633207e+01 3.9846078544669e+00 -2.9513008728797e+00
34 2 8.5876686976003e+01 -7.5904984633207e+01 2.5487586207377e+00 -3.4534062826300e+00
35 2 8.8353899100310e+01 -7.5904984633207e+01 1.1241696808491e+00 -2.9513020118251e+00
36 2 8.6702424350772e+01 -7.3569446644493e+01 3.9870553137162e+00 -3.2993132274623e+00
37 2 6.3581777857233e+01 -8.2911598599350e+01 3.9026016181149e+00 -3.1759620638347e+00
38 2 6.8536202105848e+01 -8.2911598599350e+01 3.9170219251658e+00 -3.1759632293200e+00
39 2 6.6058989981540e+01 -8.2911598599350e+01 2.4796957695366e+00 -3.1759631034255e+00
40 2 6.8536202105848e+01 -8.2911598599350e+01 1.0565837515480e+00 -3.1759641120746e+00
41 2 6.6884727356310e+01 -8.0576060610636e+01 3.9178328354147e+00 -3.4463895511930e+00
42 2 7.3490626354464e+01 -8.2911598599350e+01 1.0702005621477e+00 -3.1759651892099e+00
43 2 7.1013414230156e+01 -8.2911598599350e+01 -3.6672915956638e-01 -3.1759648600689e+00
44 2 7.3490626354464e+01 -8.2911598599350e+01 -1.7902376114701e+00 -3.1759653879636e+00
45 2 7.1013414230156e+01 -8.2911598599350e+01 2.4937090140514e+00 -3.1759642243324e+00
46 2 7.1839151604925e+01 -8.0576060610636e+01 3.9317862406700e+00 -3.4463909591639e+00
47 2 6.9361939480617e+01 -8.0576060610636e+01 2.4946935586440e+00 -3.4463899716948e+00
48 2 7.1839151604925e+01 -8.0576060610636e+01 1.0713480670522e+00 -3.4463907723147e+00
49 2 7.0187676855387e+01 -7.8240522621922e+01 3.9329960085413e+00 -3.4106333959617e+00
50 2 7.8445050603079e+01 -8.2911598599350e+01 -1.7773813782514e+00 -3.1759663805606e+00
51 2 7.5967838478772e+01 -8.2911598599350e+01 -3.2139362104638e+00 -3.1759656947466e+00
52 2 7.8445050603079e+01 -8.2911598599350e+01 -4.6378195518692e+00 -3.1759657409200e+00
53 2 7.5967838478771e+01 -8.2911598599350e+01 -3.5349803684601e-01 -3.1759658944038e+00
54 2 7.6793575853541e+01 -8.0576060610636e+01 1.0845001407698e+00 -3.4463921052801e+00
55 2 7.4316363729233e+01 -8.0576060610636e+01 -3.5219775914727e-01 -3.4463916265234e+00
56 2 7.6793575853541e+01 -8.0576060610636e+01 -1.7759380328480e+00 -3.4463922835491e+00
57 2 7.4316363729233e+01 -8.0576060610636e+01 2.5082404144705e+00 -3.4463913423765e+00
58 2 7.5142101104002e+01 -7.8240522621922e+01 3.9464573797026e+00 -3.4106347986803e+00
59 2 7.2664888979694e+01 -7.8240522621922e+01 2.5096100708803e+00 -3.4106338177534e+00
60 2 7.5142101104002e+01 -7.8240522621922e+01 1.0860192060848e+00 -3.4106345642034e+00
61 2 7.3490626354464e+01 -7.5904984633207e+01 3.9480582473376e+00 -3.4106335795859e+00
62 2 8.3399474851695e+01 -8.2911598599350e+01 -4.6256807694741e+00 -3.1759894686435e+00
63 2 8.0922262727387e+01 -8.2911598599350e+01 5.3798777535655e+00 -3.1759657755670e+00
64 2 8.0922262727387e+01 -8.2911598599350e+01 -3.2014440728167e+00 -3.1759666467760e+00
65 2 8.1748000102156e+01 -8.0576060610636e+01 -1.7635403398536e+00 -3.4463935406438e+00
66 2 7.9270787977849e+01 -8.0576060610636e+01 -3.1998668896938e+00 -3.4463927439605e+00
67 2 8.1748000102156e+01 -8.0576060610636e+01 -4.6239785134714e+00 -3.4463932556488e+00
68 2 7.9270787977849e+01 -8.0576060610636e+01 -3.3942871607604e-01 -3.4463929215597e+00
69 2 8.0096525352618e+01 -7.8240522621922e+01 1.0986863909688e+00 -3.4106358797529e+00
70 2 7.7619313228310e+01 -7.8240522621922e+01 -3.3777019021154e-01 -3.4106354074695e+00
71 2 8.0096525352618e+01 -7.8240522621922e+01 -1.7617517826490e+00 -3.4106360544775e+00
72 2 7.7619313228310e+01 -7.8240522621922e+01 2.5226679834063e+00 -3.4106351766786e+00
73 2 7.8445050603079e+01 -7.5904984633207e+01 3.9610060969824e+00 -3.4106350073622e+00
74 2 7.5967838478772e+01 -7.5904984633207e+01 2.5244142637822e+00 -3.4106340150380e+00
75 2 7.8445050603079e+01 -7.5904984633207e+01 1.1005679233646e+00 -3.4106347728834e+00
76 2 7.6793575853541e+01 -7.3569446644493e+01 3.9629879781693e+00 -3.4106338115478e+00
77 2 8.5876686976003e+01 -8.2911598599350e+01 5.3916738252247e+00 -3.1874915202824e+00
78 2 8.6702424350772e+01 -8.0576060610636e+01 -4.6122889898156e+00 -3.3267919840949e+00
79 2 8.4225212226464e+01 -8.0576060610636e+01 5.3934928423528e+00 -3.4639788012978e+00
80 2 8.4225212226464e+01 -8.0576060610636e+01 -3.1878289840294e+00 -3.4639786640545e+00
81 2 8.5050949601233e+01 -7.8240522621922e+01 -1.7498284815978e+00 -3.4407147343760e+00
82 2 8.2573737476926e+01 -7.8240522621922e+01 -3.1859193200352e+00 -3.4106365055494e+00
83 2 8.5050949601233e+01 -7.8240522621922e+01 -4.6102666552156e+00 -3.4407144518226e+00
84 2 8.2573737476926e+01 -7.8240522621922e+01 -3.2548114641740e-01 -3.4106366802251e+00
85 2 8.3399474851695e+01 -7.5904984633207e+01 1.1127334811447e+00 -3.4106589810959e+00
86 2 8.0922262727387e+01 -7.5904984633207e+01 -3.2347395915123e-01 -3.4106356255115e+00
87 2 8.3399474851695e+01 -7.5904984633207e+01 -1.7477046924731e+00 -3.4106591558244e+00
88 2 8.0922262727387e+01 -7.5904984633207e+01 2.5369642144666e+00 -3.4106353947165e+00
89 2 8.1748000102156e+01 -7.3569446644493e+01 3.9754046295327e+00 -3.4106352571897e+00
90 2 7.9270787977849e+01 -7.3569446644493e+01 2.5390765068962e+00 -3.4106342569486e+00
91 2 8.1748000102156e+01 -7.3569446644493e+01 1.1149664559149e+00 -3.4106350227091e+00
92 2 8.0096525352618e+01 -7.1233908655779e+01 3.9777553158355e+00 -3.4106340889355e+00
93 2 8.7528161725541e+01 -7.8240522621922e+01 5.4069722386373e+00 -3.1822133238672e+00
94 2 8.7528161725541e+01 -7.8240522621922e+01 -3.1743495877449e+00 -3.1822142605967e+00
95 2 8.8353899100310e+01 -7.5904984633207e+01 -1.7362684927687e+00 -2.9513021616350e+00
96 2 8.5876686976003e+01 -7.5904984633207e+01 -3.1721177264979e+00 -3.4534063851745e+00
97 2 8.8353899100310e+01 -7.5904984633207e+01 -4.5967066663865e+00 -2.9513013417964e+00
98 2 8.5876686976003e+01 -7.5904984633207e+01 -3.1167955288008e-01 -3.4534065668554e+00
99 2 8.6702424350772e+01 -7.3569446644493e+01 1.1266171400984e+00 -3.2993138846448e+00
100 2 8.4225212226464e+01 -7.3569446644493e+01 -3.0933504161084e-01 -3.4282408642400e+00
101 2 8.6702424350772e+01 -7.3569446644493e+01 -1.7338210335194e+00 -3.2993140573951e+00
102 2 8.4225212226464e+01 -7.3569446644493e+01 2.5511031320070e+00 -3.4282405888403e+00
103 2 8.5050949601233e+01 -7.1233908655779e+01 3.9896269819085e+00 -3.4407129663879e+00
104 2 8.2573737476926e+01 -7.1233908655779e+01 2.5535689085389e+00 -3.4106345405692e+00
105 2 8.5050949601233e+01 -7.1233908655779e+01 1.1291888082907e+00 -3.4407127795407e+00
106 2 8.3399474851695e+01 -6.8898370667065e+01 3.9923323832829e+00 -3.4106572907628e+00
107 2 8.7528161725541e+01 -7.1233908655779e+01 -2.9537763518694e-01 -3.1822125913031e+00
108 2 8.7528161725541e+01 -7.1233908655779e+01 2.5650605384309e+00 -3.1822119168271e+00
109 2 8.8353899100310e+01 -6.8898370667065e+01 4.0036491615788e+00 -2.9513000404589e+00
110 2 8.5876686976003e+01 -6.8898370667065e+01 2.5678655911889e+00 -3.4534045225275e+00
111 2 8.8353899100310e+01 -6.8898370667065e+01 1.1432109879610e+00 -2.9513011790283e+00
112 2 8.6702424350772e+01 -6.6562832678351e+01 4.0066935719651e+00 -3.2993113783370e+00
113 2 5.3672929360002e+01 -8.2911598599350e+01 3.8711864476809e+00 -3.1759594615259e+00
114 2 5.8627353608617e+01 -8.2911598599350e+01 3.8873361492901e+00 -3.1759608078771e+00
115 2 5.6150141484309e+01 -8.2911598599350e+01 2.4491550381154e+00 -3.1759605915341e+00
116 2 5.8627353608617e+01 -8.2911598599350e+01 1.0268979756723e+00 -3.1759616906684e+00
117 2 5.6975878859079e+01 -8.0576060610636e+01 3.8873361492901e+00 -3.4463865245389e+00
118 2 6.3581777857233e+01 -8.2911598599350e+01 1.0421634444971e+00 -3.1759629466174e+00
119 2 6.1104565732925e+01 -8.2911598599350e+01 -3.9558021087877e-01 -3.1759625285045e+00
120 2 6.3581777857233e+01 -8.2911598599350e+01 -1.8182747291207e+00 -3.1759631451889e+00
121 2 6.1104565732925e+01 -8.2911598599350e+01 2.4648579627390e+00 -3.1759618928747e+00
122 2 6.1930303107694e+01 -8.0576060610636e+01 3.9030312953286e+00 -3.4463880711292e+00
123 2 5.9453090983386e+01 -8.0576060610636e+01 2.4650790868470e+00 -3.4463870129556e+00
124 2 6.1930303107694e+01 -8.0576060610636e+01 1.0425931217108e+00 -3.4463878842498e+00
125 2 6.0278828358156e+01 -7.8240522621922e+01 3.9034858508993e+00 -3.4106303276044e+00
126 2 6.8536202105848e+01 -8.2911598599350e+01 -1.8038544220698e+00 -3.1759643107416e+00
127 2 6.6058989981540e+01 -8.2911598599350e+01 -3.2411805776990e+00 -3.1759635392938e+00
128 2 6.8536202105848e+01 -8.2911598599350e+01 -4.6642925956876e+00 -3.1759636710063e+00
129 2 6.6058989981540e+01 -8.2911598599350e+01 -3.8074240408118e-01 -3.1759637391081e+00
130 2 6.6884727356310e+01 -8.0576060610636e+01 1.0573946617969e+00 -3.4463893643282e+00
131 2 6.4407515232002e+01 -8.0576060610636e+01 -3.8011628889355e-01 -3.4463888112363e+00
132 2 6.6884727356310e+01 -8.0576060610636e+01 -1.8030435118209e+00 -3.4463895425592e+00
133 2 6.4407515232002e+01 -8.0576060610636e+01 2.4803218847243e+00 -3.4463885271639e+00
134 2 6.5233252606771e+01 -7.8240522621922e+01 3.9186892202008e+00 -3.4106319052257e+00
135 2 6.2756040482463e+01 -7.8240522621922e+01 2.4809836823539e+00 -3.4106308365589e+00
136 2 6.5233252606771e+01 -7.8240522621922e+01 1.0582510465830e+00 -3.4106316707471e+00
137 2 6.3581777857233e+01 -7.5904984633207e+01 3.9195950084761e+00 -3.4106304283512e+00
138 2 7.3490626354464e+01 -8.2911598599350e+01 -4.6506757850879e+00 -3.1759647482753e+00
139 2 7.1013414230156e+01 -8.2911598599350e+01 5.3541544931980e+00 -3.1759637892489e+00
140 2 7.1013414230156e+01 -8.2911598599350e+01 -3.2271673331842e+00 -3.1759646603369e+00
141 2 7.1839151604925e+01 -8.0576060610636e+01 -1.7890901065656e+00 -3.4463909505665e+00
142 2 6.9361939480617e+01 -8.0576060610636e+01 -3.2261827885916e+00 -3.4463900781955e+00
143 2 7.1839151604925e+01 -8.0576060610636e+01 -4.6495282801834e+00 -3.4463906655305e+00
144 2 6.9361939480617e+01 -8.0576060610636e+01 -3.6574461497384e-01 -3.4463902558059e+00
145 2 7.0187676855387e+01 -7.8240522621922e+01 1.0725578349235e+00 -3.4106331614839e+00
146 2 6.7710464731079e+01 -7.8240522621922e+01 -3.6470575569365e-01 -3.4106326017949e+00
147 2 7.0187676855387e+01 -7.8240522621922e+01 -1.7878803386943e+00 -3.4106333361910e+00
148 2 6.7710464731079e+01 -7.8240522621922e+01 2.4957324179241e+00 -3.4106323710243e+00
149 2 6.8536202105848e+01 -7.5904984633207e+01 3.9342732296559e+00 -3.4106320536459e+00
150 2 6.6058989981540e+01 -7.5904984633207e+01 2.4968302022052e+00 -3.4106309628532e+00
151 2 6.8536202105848e+01 -7.5904984633207e+01 1.0738350560381e+00 -3.4106318191648e+00
152 2 6.6884727356310e+01 -7.3569446644493e+01 3.9356236854039e+00 -3.4106305945952e+00
153 2 7.5967838478771e+01 -8.2911598599350e+01 5.3673856159184e+00 -3.1759648236039e+00
154 2 7.6793575853541e+01 -8.0576060610636e+01 -4.6363762064658e+00 -3.4463919985344e+00
155 2 7.4316363729233e+01 -8.0576060610636e+01 5.3686858936171e+00 -3.4463916344176e+00
156 2 7.4316363729233e+01 -8.0576060610636e+01 -3.2126359327651e+00 -3.4463914489197e+00
157 2 7.5142101104002e+01 -7.8240522621922e+01 -1.7744189675330e+00 -3.4106347389199e+00
158 2 7.2664888979694e+01 -7.8240522621922e+01 -3.2112662763553e+00 -3.4106338738634e+00
159 2 7.5142101104002e+01 -7.8240522621922e+01 -4.6348571411508e+00 -3.4106345081798e+00
160 2 7.2664888979694e+01 -7.8240522621922e+01 -3.5082810273748e-01 -3.4106340485350e+00
161 2 7.3490626354464e+01 -7.5904984633207e+01 1.0876200737198e+00 -3.4106333451059e+00
162 2 7.1013414230156e+01 -7.5904984633207e+01 -3.4938338958210e-01 -3.4106327692233e+00
163 2 7.3490626354464e+01 -7.5904984633207e+01 -1.7728180998980e+00 -3.4106335198182e+00
164 2 7.1013414230156e+01 -7.5904984633207e+01 2.5110547840357e+00 -3.4106325384470e+00
165 2 7.1839151604925e+01 -7.3569446644493e+01 3.9497476647652e+00 -3.4106322585300e+00
166 2 6.9361939480617e+01 -7.3569446644493e+01 2.5125808657260e+00 -3.4106311500197e+00
167 2 7.1839151604925e+01 -7.3569446644493e+01 1.0893094911474e+00 -3.4106320240466e+00
168 2 7.0187676855387e+01 -7.1233908655779e+01 3.9515331373253e+00 -3.4106308238966e+00
169 2 7.9270787977849e+01 -8.0576060610636e+01 5.3814549366884e+00 -3.4463929294702e+00
170 2 8.0096525352618e+01 -7.8240522621922e+01 -4.6221899562668e+00 -3.4106358237350e+00
171 2 7.7619313228310e+01 -7.8240522621922e+01 5.3831134625529e+00 -3.4106354672551e+00
172 2 7.7619313228310e+01 -7.8240522621922e+01 -3.1982083638293e+00 -3.4106352327961e+00
173 2 7.8445050603079e+01 -7.5904984633207e+01 -1.7598702502532e+00 -3.4106349476044e+00
174 2 7.5967838478771e+01 -7.5904984633207e+01 -3.1964620834534e+00 -3.4106340711586e+00
175 2 7.8445050603079e+01 -7.5904984633207e+01 -4.6203084238710e+00 -3.4106347168704e+00
176 2 7.5967838478771e+01 -7.5904984633207e+01 -3.3602390983561e-01 -3.4106342458244e+00
177 2 7.6793575853541e+01 -7.3569446644493e+01 1.1025498045515e+00 -3.4106335770657e+00
178 2 7.4316363729233e+01 -7.3569446644493e+01 -3.3418277662356e-01 -3.4106329889358e+00
179 2 7.6793575853541e+01 -7.3569446644493e+01 -1.7578883690663e+00 -3.4106337517829e+00
180 2 7.4316363729233e+01 -7.3569446644493e+01 2.5262553969942e+00 -3.4106327581543e+00
181 2 7.5142101104002e+01 -7.1233908655779e+01 3.9650783745096e+00 -3.4106325170934e+00
182 2 7.2664888979694e+01 -7.1233908655779e+01 2.5281992615256e+00 -3.4106313954138e+00
183 2 7.5142101104002e+01 -7.1233908655779e+01 1.1046402008918e+00 -3.4106322826077e+00
184 2 7.3490626354464e+01 -6.8898370667065e+01 3.9672863533924e+00 -3.4106311129650e+00
185 2 8.2573737476926e+01 -7.8240522621922e+01 5.3954025063470e+00 -3.4106367400053e+00
186 2 8.3399474851695e+01 -7.5904984633207e+01 -4.6081428660909e+00 -3.4106589250872e+00
187 2 8.0922262727387e+01 -7.5904984633207e+01 5.3974096936132e+00 -3.4106356853006e+00
188 2 8.0922262727387e+01 -7.5904984633207e+01 -3.1839121327690e+00 -3.4106354508432e+00
189 2 8.1748000102156e+01 -7.3569446644493e+01 -1.7454717177029e+00 -3.4106351974342e+00
190 2 7.9270787977849e+01 -7.3569446644493e+01 -3.1817998403394e+00 -3.4106343130791e+00
191 2 8.1748000102156e+01 -7.3569446644493e+01 -4.6059098913207e+00 -3.4106349667060e+00
192 2 7.9270787977849e+01 -7.3569446644493e+01 -3.2136166672163e-01 -3.4106344877393e+00
193 2 8.0096525352618e+01 -7.1233908655779e+01 1.1173171422177e+00 -3.4106338544514e+00
194 2 7.7619313228310e+01 -7.1233908655779e+01 -3.1913589005314e-01 -3.4106332580613e+00
195 2 8.0096525352618e+01 -7.1233908655779e+01 -1.7431210314001e+00 -3.4106340291730e+00
196 2 7.7619313228310e+01 -7.1233908655779e+01 2.5413022835647e+00 -3.4106330272753e+00
197 2 7.8445050603079e+01 -6.8898370667065e+01 3.9802331375233e+00 -3.4106328259186e+00
198 2 7.5967838478771e+01 -6.8898370667065e+01 2.5436508269088e+00 -3.4106316956550e+00
199 2 7.8445050603079e+01 -6.8898370667065e+01 1.1197949639055e+00 -3.4106325914308e+00
200 2 7.6793575853541e+01 -6.6562832678351e+01 3.9828485358311e+00 -3.4106314577731e+00
201 2 8.5876686976003e+01 -7.5904984633207e+01 5.4092040998843e+00 -3.4534065389715e+00
202 2 8.6702424350772e+01 -7.3569446644493e+01 -4.5942592071372e+00 -3.2993134317073e+00
203 2 8.4225212226464e+01 -7.3569446644493e+01 5.4115486111536e+00 -3.4282408755535e+00
204 2 8.4225212226464e+01 -7.3569446644493e+01 -3.1697732152286e+00 -3.4282406891554e+00
205 2 8.5050949601233e+01 -7.1233908655779e+01 -1.7312493653271e+00 -3.4407129573643e+00
206 2 8.2573737476926e+01 -7.1233908655779e+01 -3.1673074386967e+00 -3.4106345967088e+00
207 2 8.5050949601233e+01 -7.1233908655779e+01 -4.5916875389449e+00 -3.4407126748490e+00
208 2 8.2573737476926e+01 -7.1233908655779e+01 -3.0686926507890e-01 -3.4106347713637e+00
209 2 8.3399474851695e+01 -6.8898370667065e+01 1.1318942096651e+00 -3.4106570568811e+00
210 2 8.0922262727387e+01 -6.8898370667065e+01 -3.0427272179163e-01 -3.4106335731898e+00
211 2 8.3399474851695e+01 -6.8898370667065e+01 -1.7285439639527e+00 -3.4106572316067e+00
212 2 8.0922262727387e+01 -6.8898370667065e+01 2.5561654518262e+00 -3.4106333423995e+00
213 2 8.1748000102156e+01 -6.6562832678351e+01 3.9951820210927e+00 -3.4106331810645e+00
214 2 7.9270787977849e+01 -6.6562832678351e+01 2.5589032643582e+00 -3.4106320467388e+00
215 2 8.1748000102156e+01 -6.6562832678351e+01 1.1347438474749e+00 -3.4106329465748e+00
216 2 8.0096525352618e+01 -6.4227294689637e+01 3.9981875037286e+00 -3.4106318536916e+00
217 2 8.7528161725541e+01 -7.1233908655779e+01 5.4255060175775e+00 -3.1822114585624e+00
218 2 8.7528161725541e+01 -7.1233908655779e+01 -3.1558158088047e+00 -3.1822123951985e+00
219 2 8.8353899100310e+01 -6.8898370667065e+01 -1.7172271856568e+00 -2.9513013290175e+00
220 2 8.5876686976003e+01 -6.8898370667065e+01 -3.1530107560467e+00 -3.4534046251527e+00
221 2 8.8353899100310e+01 -6.8898370667065e+01 -4.5776653592746e+00 -2.9513005093291e+00
222 2 8.5876686976003e+01 -6.8898370667065e+01 -2.9257258242885e-01 -3.4534048067900e+00
223 2 8.6702424350772e+01 -6.6562832678351e+01 1.1462553983473e+00 -3.2993120356080e+00
224 2 8.4225212226464e+01 -6.6562832678351e+01 -2.8962097542160e-01 -3.4282389433680e+00
225 2 8.6702424350772e+01 -6.6562832678351e+01 -1.7141827752705e+00 -3.2993122083712e+00
226 2 8.4225212226464e+01 -6.6562832678351e+01 2.5708171981962e+00 -3.4282386679815e+00
227 2 8.5050949601233e+01 -6.4227294689637e+01 4.0098976691870e+00 -3.4407110364927e+00
228 2 8.2573737476926e+01 -6.4227294689637e+01 2.5739268841609e+00 -3.4106324441642e+00
229 2 8.5050949601233e+01 -6.4227294689637e+01 1.1494594955692e+00 -3.4407108496235e+00
230 2 8.3399474851695e+01 -6.1891756700923e+01 4.0132740116185e+00 -3.4106551836485e+00
231 2 8.7528161725541e+01 -6.4227294689637e+01 -2.7520582656882e-01 -3.1822105115116e+00
232 2 8.7528161725541e+01 -6.4227294689637e+01 2.5852323470490e+00 -3.1822098369906e+00
233 2 8.8353899100310e+01 -6.1891756700923e+01 4.0243555151897e+00 -2.9512991314695e+00
234 2 8.5876686976003e+01 -6.1891756700923e+01 2.5886948665477e+00 -3.4534026212127e+00
235 2 8.8353899100310e+01 -6.1891756700923e+01 1.1639173415719e+00 -2.9513002696818e+00
236 2 8.6702424350772e+01 -5.9556218712209e+01 4.0280819783197e+00 -3.2993093224197e+00
237 2 4.3764080862771e+01 -8.2911598599350e+01 3.8361013835873e+00 -3.1759565144788e+00
238 2 4.8718505111386e+01 -8.2911598599350e+01 3.8541177041889e+00 -3.1759580279660e+00
239 2 4.6241292987078e+01 -8.2911598599350e+01 2.4150103805584e+00 -3.1759577261120e+00
240 2 4.8718505111386e+01 -8.2911598599350e+01 9.9367953057114e-01 -3.1759589107015e+00
241 2 4.7067030361848e+01 -8.0576060610636e+01 3.8530993904702e+00 -3.4463832710411e+00
242 2 5.3672929360002e+01 -8.2911598599350e+01 1.0107482740631e+00 -3.1759603443029e+00
243 2 5.1195717235694e+01 -8.2911598599350e+01 -4.2788834782222e-01 -3.1759598364441e+00
244 2 5.3672929360002e+01 -8.2911598599350e+01 -1.8496898995547e+00 -3.1759605426555e+00
245 2 5.1195717235694e+01 -8.2911598599350e+01 2.4325498257956e+00 -3.1759592009138e+00
246 2 5.2021454610463e+01 -8.0576060610636e+01 3.8707047896376e+00 -3.4463849202570e+00
247 2 4.9544242486155e+01 -8.0576060610636e+01 2.4318068746956e+00 -3.4463838075802e+00
248 2 5.2021454610463e+01 -8.0576060610636e+01 1.0102666160198e+00 -3.4463847333534e+00
249 2 5.0369979860925e+01 -7.8240522621922e+01 3.8701935318790e+00 -3.4106269301360e+00
250 2 5.8627353608617e+01 -8.2911598599350e+01 -1.8335401979455e+00 -3.1759618891353e+00
251 2 5.6150141484309e+01 -8.2911598599350e+01 -3.2717213091202e+00 -3.1759610271095e+00
252 2 5.8627353608617e+01 -8.2911598599350e+01 -4.6939783715633e+00 -3.1759612493115e+00
253 2 5.6150141484309e+01 -8.2911598599350e+01 -4.1128313550239e-01 -3.1759612271129e+00
254 2 5.6975878859079e+01 -8.0576060610636e+01 1.0268979756723e+00 -3.4463863376465e+00
255 2 5.4498666734771e+01 -8.0576060610636e+01 -4.1151726281347e-01 -3.4463857201753e+00
256 2 5.6975878859079e+01 -8.0576060610636e+01 -1.8335401979455e+00 -3.4463865158233e+00
257 2 5.4498666734771e+01 -8.0576060610636e+01 2.4489209108043e+00 -3.4463854361895e+00
258 2 5.5324404109540e+01 -7.8240522621922e+01 3.8873361492901e+00 -3.4106286668606e+00
259 2 5.2847191985232e+01 -7.8240522621922e+01 2.4486725987000e+00 -3.4106275168520e+00
260 2 5.5324404109540e+01 -7.8240522621922e+01 1.0268979756723e+00 -3.4106284323808e+00
261 2 5.3672929360002e+01 -7.5904984633207e+01 3.8873361492901e+00 -3.4106268872789e+00
262 2 6.3581777857233e+01 -8.2911598599350e+01 -4.6787129027385e+00 -3.1759625054082e+00
263 2 6.1104565732925e+01 -8.2911598599350e+01 5.3253034418856e+00 -3.1759614575755e+00
264 2 6.1104565732925e+01 -8.2911598599350e+01 -3.2560183844966e+00 -3.1759623285998e+00
265 2 6.1930303107694e+01 -8.0576060610636e+01 -1.8178450519070e+00 -3.4463880624561e+00
266 2 5.9453090983386e+01 -8.0576060610636e+01 -3.2557972603886e+00 -3.4463871193549e+00
267 2 6.1930303107694e+01 -8.0576060610636e+01 -4.6782832255248e+00 -3.4463877773732e+00
268 2 5.9453090983386e+01 -8.0576060610636e+01 -3.9535908677078e-01 -3.4463872969864e+00
269 2 6.0278828358156e+01 -7.8240522621922e+01 1.0430476772815e+00 -3.4106300931252e+00
270 2 5.7801616233848e+01 -7.8240522621922e+01 -3.9512495945970e-01 -3.4106294474600e+00
271 2 6.0278828358156e+01 -7.8240522621922e+01 -1.8173904963363e+00 -3.4106302678085e+00
272 2 5.7801616233848e+01 -7.8240522621922e+01 2.4653132141581e+00 -3.4106292167170e+00
273 2 5.8627353608617e+01 -7.5904984633207e+01 3.9039675089426e+00 -3.4106287048212e+00
274 2 5.6150141484309e+01 -7.5904984633207e+01 2.4655615262624e+00 -3.4106275168413e+00
275 2 5.8627353608617e+01 -7.5904984633207e+01 1.0435293353248e+00 -3.4106284703386e+00
276 2 5.6975878859079e+01 -7.3569446644493e+01 3.9044787667013e+00 -3.4106269301290e+00
277 2 6.6058989981540e+01 -8.2911598599350e+01 5.3401412486832e+00 -3.1759626682463e+00
278 2 6.6884727356310e+01 -8.0576060610636e+01 -4.6634816854387e+00 -3.4463892575005e+00
279 2 6.4407515232002e+01 -8.0576060610636e+01 5.3407673638709e+00 -3.4463888190943e+00
280 2 6.4407515232002e+01 -8.0576060610636e+01 -3.2405544625113e+00 -3.4463886336168e+00
281 2 6.5233252606771e+01 -7.8240522621922e+01 -1.8021871270348e+00 -3.4106318454432e+00
282 2 6.2756040482463e+01 -7.8240522621922e+01 -3.2398926648817e+00 -3.4106308926477e+00
283 2 6.5233252606771e+01 -7.8240522621922e+01 -4.6626253006526e+00 -3.4106316147067e+00
284 2 6.2756040482463e+01 -7.8240522621922e+01 -3.7945449126390e-01 -3.4106310673167e+00
285 2 6.3581777857233e+01 -7.5904984633207e+01 1.0591568348583e+00 -3.4106301938693e+00
286 2 6.1104565732925e+01 -7.5904984633207e+01 -3.7875387445095e-01 -3.4106295188807e+00
287 2 6.3581777857233e+01 -7.5904984633207e+01 -1.8012813387595e+00 -3.4106303685596e+00
288 2 6.1104565732925e+01 -7.5904984633207e+01 2.4816842991669e+00 -3.4106292881301e+00
289 2 6.1930303107694e+01 -7.3569446644493e+01 3.9205545943913e+00 -3.4106288181058e+00
290 2 5.9453090983386e+01 -7.3569446644493e+01 2.4824272502668e+00 -3.4106275972976e+00
291 2 6.1930303107694e+01 -7.3569446644493e+01 1.0601164207735e+00 -3.4106285836202e+00
292 2 6.0278828358156e+01 -7.1233908655779e+01 3.9215729081100e+00 -3.4106270579623e+00
293 2 6.9361939480617e+01 -8.0576060610636e+01 5.3551390377906e+00 -3.4463902636826e+00
294 2 7.0187676855387e+01 -7.8240522621922e+01 -4.6483185123121e+00 -3.4106331054529e+00
295 2 6.7710464731079e+01 -7.8240522621922e+01 5.3561778970707e+00 -3.4106326615915e+00
296 2 6.7710464731079e+01 -7.8240522621922e+01 -3.2251439293115e+00 -3.4106324271248e+00
297 2 6.8536202105848e+01 -7.5904984633207e+01 -1.7866031175797e+00 -3.4106319938670e+00
298 2 6.6058989981540e+01 -7.5904984633207e+01 -3.2240461450304e+00 -3.4106310189557e+00
299 2 6.8536202105848e+01 -7.5904984633207e+01 -4.6470412911975e+00 -3.4106317631378e+00
300 2 6.6058989981540e+01 -7.5904984633207e+01 -3.6360797141259e-01 -3.4106311936176e+00
301 2 6.6884727356310e+01 -7.3569446644493e+01 1.0751855117861e+00 -3.4106303601105e+00
302 2 6.4407515232002e+01 -7.3569446644493e+01 -3.6244611630997e-01 -3.4106296606239e+00
303 2 6.6884727356310e+01 -7.3569446644493e+01 -1.7852526618317e+00 -3.4106305348074e+00
304 2 6.4407515232002e+01 -7.3569446644493e+01 2.4979920573078e+00 -3.4106294298661e+00
305 2 6.5233252606771e+01 -7.1233908655779e+01 3.9370538345510e+00 -3.4106290049262e+00
306 2 6.2756040482463e+01 -7.1233908655779e+01 2.4992237444040e+00 -3.4106277569062e+00
307 2 6.5233252606771e+01 -7.1233908655779e+01 1.0766156609332e+00 -3.4106287704377e+00
308 2 6.3581777857233e+01 -6.8898370667065e+01 3.9385709149929e+00 -3.4106272686372e+00
309 2 7.2664888979694e+01 -7.8240522621922e+01 5.3700555500269e+00 -3.4106341083260e+00
310 2 7.3490626354464e+01 -7.5904984633207e+01 -4.6332562735159e+00 -3.4106332890868e+00
311 2 7.1013414230156e+01 -7.5904984633207e+01 5.3715002631823e+00 -3.4106328290242e+00
312 2 7.1013414230156e+01 -7.5904984633207e+01 -3.2098215631999e+00 -3.4106325945597e+00
313 2 7.1839151604925e+01 -7.3569446644493e+01 -1.7711286824704e+00 -3.4106321987544e+00
314 2 6.9361939480617e+01 -7.3569446644493e+01 -3.2082954815096e+00 -3.4106312061353e+00
315 2 7.1839151604925e+01 -7.3569446644493e+01 -4.6315668560882e+00 -3.4106319680326e+00
316 2 6.9361939480617e+01 -7.3569446644493e+01 -3.4785730789185e-01 -3.4106313807903e+00
317 2 7.0187676855387e+01 -7.1233908655779e+01 1.0910949637075e+00 -3.4106305894095e+00
318 2 6.7710464731079e+01 -7.1233908655779e+01 -3.4624282165989e-01 -3.4106298705313e+00
319 2 7.0187676855387e+01 -7.1233908655779e+01 -1.7693432099103e+00 -3.4106307641124e+00
320 2 6.7710464731079e+01 -7.1233908655779e+01 2.5141953519579e+00 -3.4106296397668e+00
321 2 6.8536202105848e+01 -6.8898370667065e+01 3.9534230368905e+00 -3.4106292623800e+00
322 2 6.6058989981540e+01 -6.8898370667065e+01 2.5159061092747e+00 -3.4106279930906e+00
323 2 6.8536202105848e+01 -6.8898370667065e+01 1.0929848632727e+00 -3.4106290278887e+00
324 2 6.6884727356310e+01 -6.6562832678351e+01 3.9554267296239e+00 -3.4106275586828e+00
325 2 7.5967838478771e+01 -7.5904984633207e+01 5.3848597429288e+00 -3.4106343056193e+00
326 2 7.6793575853541e+01 -7.3569446644493e+01 -4.6183265426841e+00 -3.4106335210580e+00
327 2 7.4316363729233e+01 -7.3569446644493e+01 5.3867008761408e+00 -3.4106330487409e+00
328 2 7.4316363729233e+01 -7.3569446644493e+01 -3.1946209502414e+00 -3.4106328142784e+00
329 2 7.5142101104002e+01 -7.1233908655779e+01 -1.7557979727260e+00 -3.4106324573207e+00
330 2 7.2664888979694e+01 -7.1233908655779e+01 -3.1926770857100e+00 -3.4106314515418e+00
331 2 7.5142101104002e+01 -7.1233908655779e+01 -4.6162361463438e+00 -3.4106322266059e+00
332 2 7.2664888979694e+01 -7.1233908655779e+01 -3.3223891209222e-01 -3.4106316261900e+00
333 2 7.3490626354464e+01 -6.8898370667065e+01 1.1068481797746e+00 -3.4106308784754e+00
334 2 7.1013414230156e+01 -6.8898370667065e+01 -3.3018354840342e-01 -3.4106301454672e+00
335 2 7.3490626354464e+01 -6.8898370667065e+01 -1.7535899938432e+00 -3.4106310531840e+00
336 2 7.1013414230156e+01 -6.8898370667065e+01 2.5302546252144e+00 -3.4106299146968e+00
337 2 7.1839151604925e+01 -6.6562832678351e+01 3.9696220095124e+00 -3.4106295865607e+00
338 2 6.9361939480617e+01 -6.6562832678351e+01 2.5324312731270e+00 -3.4106283021149e+00