ITEM: TIMESTEP
0
ITEM: NUMBER OF ATOMS
92160
ITEM: BOX BOUNDS xy xz yz pp pp pp
-194.464 194.464 0
-187.123 187.123 0
0 11.4589 0
ITEM: ATOMS id type x y z c_peatom 
1 2 -189.025 -184.015 11.3314 -7.09084 
2 2 -193.076 -186.353 11.3295 -7.03055 
3 2 -194.426 -184.014 10.3701 -6.86931 
4 2 -194.426 -184.014 1.77596 -6.86931 
5 2 -190.376 -186.354 10.3778 -7.00087 
6 2 -190.376 -186.354 1.78361 -7.00087 
7 2 -191.725 -184.014 0.824226 -7.08998 
8 2 -191.725 -184.014 3.68895 -7.08998 
9 2 -187.675 -186.354 0.831955 -6.99955 
10 2 -187.675 -186.354 3.69668 -6.99955 
11 2 -189.025 -184.015 2.73727 -7.09084 
12 2 -193.076 -186.353 2.73532 -7.03055 
13 2 -180.923 -184.016 11.3414 -7.09083 
14 2 -184.974 -186.355 11.3392 -6.99819 
15 2 -186.324 -184.015 10.3798 -7.09083 
16 2 -186.324 -184.015 1.78563 -7.09083 
17 2 -182.274 -186.355 10.3877 -6.99678 
18 2 -182.274 -186.355 1.79352 -6.99678 
19 2 -183.624 -184.016 0.834048 -7.09083 
20 2 -183.624 -184.016 3.69877 -7.09083 
21 2 -179.573 -186.356 0.84202 -6.99532 
22 2 -179.573 -186.356 3.70674 -6.99532 
23 2 -180.923 -184.016 2.74724 -7.09083 
24 2 -184.974 -186.355 2.74507 -6.99819 
25 2 -172.822 -184.018 11.3519 -7.09082 
26 2 -176.873 -186.357 11.3495 -6.99381 
27 2 -178.223 -184.017 10.3899 -7.09083 
28 2 -178.223 -184.017 1.79577 -7.09083 
29 2 -174.172 -186.357 10.3981 -6.99225 
30 2 -174.172 -186.357 1.8039 -6.99225 
31 2 -175.522 -184.017 0.844346 -7.09082 
32 2 -175.522 -184.017 3.70907 -7.09082 
33 2 -171.472 -186.358 0.852568 -6.99064 
34 2 -171.472 -186.358 3.71729 -6.99064 
35 2 -172.822 -184.018 2.7577 -7.09082 
36 2 -176.873 -186.357 2.7553 -6.99381 
37 2 -164.721 -184.02 11.3628 -7.09081 
38 2 -168.772 -186.358 11.3602 -6.98898 
39 2 -170.121 -184.019 10.4006 -7.09082 
40 2 -170.121 -184.019 1.8064 -7.09082 
41 2 -166.071 -186.359 10.409 -6.98727 
42 2 -166.071 -186.359 1.81479 -6.98727 
43 2 -167.421 -184.019 0.855144 -7.09082 
44 2 -167.421 -184.019 3.71987 -7.09082 
45 2 -163.371 -186.36 0.863621 -6.98553 
46 2 -163.371 -186.36 3.72835 -6.98553 
47 2 -164.721 -184.02 2.76867 -7.09081 
48 2 -168.772 -186.358 2.76601 -6.98898 
49 2 -156.619 -184.022 11.3743 -7.09081 
50 2 -160.67 -186.36 11.3714 -6.98374 
51 2 -162.02 -184.021 10.4117 -7.09081 
52 2 -162.02 -184.021 1.81754 -7.09081 
53 2 -157.97 -186.361 10.4204 -6.98192 
54 2 -157.97 -186.361 1.82619 -6.98192 
55 2 -159.32 -184.021 0.866466 -7.09081 
56 2 -159.32 -184.021 3.73119 -7.09081 
57 2 -155.27 -186.362 0.875201 -6.98006 
58 2 -155.27 -186.362 3.73993 -6.98006 
59 2 -156.619 -184.022 2.78018 -7.09081 
60 2 -160.67 -186.36 2.77724 -6.98374 
61 2 -148.518 -184.024 11.3864 -7.09081 
62 2 -152.569 -186.363 11.3832 -6.97818 
63 2 -153.919 -184.023 10.4234 -7.09081 
64 2 -153.919 -184.023 1.82922 -7.09081 
65 2 -149.869 -186.364 10.4323 -6.97627 
66 2 -149.869 -186.364 1.83813 -6.97627 
67 2 -151.219 -184.024 0.878334 -7.09081 
68 2 -151.219 -184.024 3.74306 -7.09081 
69 2 -147.168 -186.364 0.887328 -6.97433 
70 2 -147.168 -186.364 3.75205 -6.97433 
71 2 -148.518 -184.024 2.79223 -7.09081 
72 2 -152.569 -186.363 2.789 -6.97818 
73 2 -140.417 -184.027 11.399 -7.09081 
74 2 -144.468 -186.365 11.3955 -6.97238 
75 2 -145.818 -184.025 10.4356 -7.09081 
76 2 -145.818 -184.025 1.84147 -7.09081 
77 2 -141.768 -186.366 10.4448 -6.97041 
78 2 -141.768 -186.366 1.85063 -6.97041 
79 2 -143.118 -184.026 0.890767 -7.09081 
80 2 -143.118 -184.026 3.75549 -7.09081 
81 2 -139.067 -186.367 0.900019 -6.96844 
82 2 -139.067 -186.367 3.76474 -6.96844 
83 2 -140.417 -184.027 2.80486 -7.09081 
84 2 -144.468 -186.365 2.80131 -6.97238 
85 2 -132.316 -184.03 11.4122 -7.09081 
86 2 -136.367 -186.368 11.4084 -6.96646 
87 2 -137.717 -184.028 10.4485 -7.09081 
88 2 -137.717 -184.028 1.85429 -7.09081 
89 2 -133.667 -186.369 10.4579 -6.96448 
90 2 -133.667 -186.369 1.86371 -6.96448 
91 2 -135.017 -184.029 0.903782 -7.09081 
92 2 -135.017 -184.029 3.76851 -7.09081 
93 2 -130.967 -186.37 0.913287 -6.96252 
94 2 -130.967 -186.37 3.77801 -6.96252 
95 2 -132.316 -184.03 2.81807 -7.09081 
96 2 -136.367 -186.368 2.81419 -6.96646 
97 2 -124.216 -184.033 11.4261 -7.09081 
98 2 -128.266 -186.371 11.4218 -6.96057 
99 2 -129.616 -184.031 10.4619 -7.09081 
100 2 -129.616 -184.031 1.8677 -7.09081 
101 2 -125.566 -186.372 10.4715 -6.95864 
102 2 -125.566 -186.372 1.87736 -6.95864 
103 2 -126.916 -184.032 0.917392 -7.09081 
104 2 -126.916 -184.032 3.78212 -7.09081 
105 2 -122.866 -186.373 0.92714 -6.95675 
106 2 -122.866 -186.373 3.79186 -6.95675 
107 2 -124.216 -184.033 2.83188 -7.09081 
108 2 -128.266 -186.371 2.82766 -6.96057 
109 2 -116.115 -184.036 11.4405 -7.0908 
110 2 -120.166 -186.374 11.4359 -6.95492 
111 2 -121.515 -184.034 10.4759 -7.0908 
112 2 -121.515 -184.034 1.88171 -7.0908 
113 2 -117.465 -186.375 10.4858 -6.95316 
114 2 -117.465 -186.375 1.89161 -6.95316 
115 2 -118.815 -184.035 0.931605 -7.0908 
116 2 -118.815 -184.035 3.79633 -7.0908 
117 2 -114.765 -186.376 0.941581 -6.95146 
118 2 -114.765 -186.376 3.80631 -6.95146 
119 2 -116.115 -184.036 2.84629 -7.0908 
120 2 -120.166 -186.374 2.8417 -6.95492 
121 2 -108.014 -184.039 11.4555 -7.0908 
122 2 -112.065 -186.377 11.4505 -6.94984 
123 2 -113.415 -184.037 10.4905 -7.0908 
124 2 -113.415 -184.037 1.89632 -7.0908 
125 2 -109.365 -186.379 10.5006 -6.94832 
126 2 -109.365 -186.379 1.90644 -6.94832 
127 2 -110.715 -184.038 0.94642 -7.0908 
128 2 -110.715 -184.038 3.81114 -7.0908 
129 2 -106.665 -186.38 0.956606 -6.94689 
130 2 -106.665 -186.38 3.82133 -6.94689 
131 2 -108.014 -184.039 2.86131 -7.0908 
132 2 -112.065 -186.377 2.85634 -6.94984 
133 2 -99.9137 -184.043 0.0121887 -7.0908 
134 2 -103.964 -186.381 0.00683427 -6.94556 
135 2 -105.314 -184.041 10.5057 -7.0908 
136 2 -105.314 -184.041 1.91154 -7.0908 
137 2 -101.264 -186.382 10.516 -6.94433 
138 2 -101.264 -186.382 1.92185 -6.94433 
139 2 -102.614 -184.042 0.96183 -7.0908 
140 2 -102.614 -184.042 3.82655 -7.0908 
141 2 -98.5639 -186.383 0.972203 -6.94319 
142 2 -98.5639 -186.383 3.83693 -6.94319 
143 2 -99.9137 -184.043 2.87691 -7.0908 
144 2 -103.964 -186.381 2.87156 -6.94556 
145 2 -91.8131 -184.047 0.0283681 -7.0908 
146 2 -95.8637 -186.385 0.0226178 -6.94213 
147 2 -97.2135 -184.044 10.5215 -7.0908 
148 2 -97.2135 -184.044 1.92734 -7.0908 
149 2 -93.1635 -186.386 10.532 -6.94115 
150 2 -93.1635 -186.386 1.93782 -6.94115 
151 2 -94.5133 -184.046 0.977821 -7.0908 
152 2 -94.5133 -184.046 3.84255 -7.0908 
153 2 -90.4633 -186.387 0.988352 -6.94025 
154 2 -90.4633 -186.387 3.85308 -6.94025 
155 2 -91.8131 -184.047 2.89309 -7.0908 
156 2 -95.8637 -186.385 2.88734 -6.94213 
157 2 -83.7125 -184.051 0.0450938 -7.0908 
158 2 -87.7631 -186.388 0.0389442 -6.9394 
159 2 -89.1129 -184.048 10.5379 -7.0908 
160 2 -89.1129 -184.048 1.9437 -7.0908 
161 2 -85.0629 -186.39 10.5485 -6.93862 
162 2 -85.0629 -186.39 1.95432 -6.93862 
163 2 -86.4127 -184.049 0.994368 -7.0908 
164 2 -86.4127 -184.049 3.85909 -7.0908 
165 2 -82.3627 -186.391 1.00502 -6.93788 
166 2 -82.3627 -186.391 3.86975 -6.93788 
167 2 -83.7125 -184.051 2.90982 -7.0908 
168 2 -87.7631 -186.388 2.90367 -6.9394 
169 2 -75.6118 -184.055 0.0623301 -7.0908 
170 2 -79.6624 -186.392 0.0557821 -6.93718 
171 2 -81.0123 -184.052 10.5548 -7.0908 
172 2 -81.0123 -184.052 1.9606 -7.0908 
173 2 -76.9622 -186.393 10.5655 -6.93651 
174 2 -76.9622 -186.393 1.97132 -6.93651 
175 2 -78.3121 -184.053 1.01144 -7.0908 
176 2 -78.3121 -184.053 3.87616 -7.0908 
177 2 -74.2619 -186.395 1.02218 -6.93585 
178 2 -74.2619 -186.395 3.88691 -6.93585 
179 2 -75.6118 -184.055 2.92705 -7.0908 
180 2 -79.6624 -186.392 2.92051 -6.93718 
181 2 -67.5111 -184.058 0.0800341 -7.0908 
182 2 -71.5617 -186.396 0.0730926 -6.93521 
183 2 -72.9116 -184.056 10.5722 -7.0908 
184 2 -72.9116 -184.056 1.978 -7.0908 
185 2 -68.8614 -186.397 10.5829 -6.93457 
186 2 -68.8614 -186.397 1.98878 -6.93457 
187 2 -70.2113 -184.057 1.02899 -7.0908 
188 2 -70.2113 -184.057 3.89372 -7.0908 
189 2 -66.1611 -186.398 1.03978 -6.93391 
190 2 -66.1611 -186.398 3.90451 -6.93391 
191 2 -67.5111 -184.058 2.94476 -7.0908 
192 2 -71.5617 -186.396 2.93782 -6.93521 
193 2 -59.4102 -184.062 0.0981564 -7.0908 
194 2 -63.4608 -186.4 0.0908302 -6.93323 
195 2 -64.8108 -184.06 10.59 -7.0908 
196 2 -64.8108 -184.06 1.99585 -7.0908 
197 2 -60.7605 -186.401 10.6008 -6.9325 
198 2 -60.7605 -186.401 2.00665 -6.9325 
199 2 -62.1105 -184.061 1.04698 -7.0908 
200 2 -62.1105 -184.061 3.91171 -7.0908 
201 2 -58.0602 -186.402 1.05778 -6.93172 
202 2 -58.0602 -186.402 3.9225 -6.93172 
203 2 -59.4102 -184.062 2.96288 -7.0908 
204 2 -63.4608 -186.4 2.95555 -6.93323 
205 2 -51.3092 -184.065 0.116643 -7.09079 
206 2 -55.3599 -186.403 0.108945 -6.93089 
207 2 -56.7099 -184.063 10.6083 -7.0908 
208 2 -56.7099 -184.063 2.0141 -7.0908 
209 2 -52.6595 -186.404 10.619 -6.92999 
210 2 -52.6595 -186.404 2.02487 -6.92999 
211 2 -54.0096 -184.064 1.06535 -7.09079 
212 2 -54.0096 -184.064 3.93008 -7.09079 
213 2 -49.9591 -186.405 1.07611 -6.92905 
214 2 -49.9591 -186.405 3.94084 -6.92905 
215 2 -51.3092 -184.065 2.98137 -7.09079 
216 2 -55.3599 -186.403 2.97367 -6.93089 
217 2 -43.2081 -184.069 0.13544 -7.09079 
218 2 -47.2588 -186.406 0.127384 -6.92805 
219 2 -48.6088 -184.067 10.6269 -7.09079 
220 2 -48.6088 -184.067 2.03269 -7.09079 
221 2 -44.5584 -186.407 10.6376 -6.927 
222 2 -44.5584 -186.407 2.04341 -6.927 
223 2 -45.9085 -184.068 1.08405 -7.09079 
224 2 -45.9085 -184.068 3.94878 -7.09079 
225 2 -41.858 -186.408 1.09474 -6.92592 
226 2 -41.858 -186.408 3.95946 -6.92592 
227 2 -43.2081 -184.069 3.00016 -7.09079 
228 2 -47.2588 -186.406 2.99211 -6.92805 
229 2 -35.1068 -184.071 0.15449 -7.09079 
230 2 -39.1575 -186.409 0.146093 -6.92479 
231 2 -40.5077 -184.07 10.6458 -7.09079 
232 2 -40.5077 -184.07 2.05158 -7.09079 
233 2 -36.4571 -186.41 10.6564 -6.92364 
234 2 -36.4571 -186.41 2.0622 -6.92364 
235 2 -37.8072 -184.071 1.10302 -7.09079 
236 2 -37.8072 -184.071 3.96775 -7.09079 
237 2 -33.7566 -186.411 1.1136 -6.92246 
238 2 -33.7566 -186.411 3.97832 -6.92246 
239 2 -35.1068 -184.071 3.01921 -7.09079 
240 2 -39.1575 -186.409 3.01082 -6.92479 
241 2 -27.0054 -184.074 0.173741 -7.09079 
242 2 -31.0561 -186.412 0.165021 -6.92126 
243 2 -32.4063 -184.072 10.6649 -7.09079 
244 2 -32.4063 -184.072 2.0707 -7.09079 
245 2 -28.3557 -186.413 10.6754 -6.92007 
246 2 -28.3557 -186.413 2.08119 -6.92007 
247 2 -29.7059 -184.073 1.12221 -7.09079 
248 2 -29.7059 -184.073 3.98694 -7.09079 
249 2 -25.6552 -186.413 1.13264 -6.91888 
250 2 -25.6552 -186.413 3.99737 -6.91888 
251 2 -27.0054 -184.074 3.03847 -7.09079 
252 2 -31.0561 -186.412 3.02975 -6.92126 
253 2 -18.9038 -184.075 0.193141 -7.09079 
254 2 -22.9547 -186.414 0.184116 -6.91773 
255 2 -24.3049 -184.074 10.6842 -7.09079 
256 2 -24.3049 -184.074 2.09001 -7.09079 
257 2 -20.2541 -186.414 10.6945 -6.91664 
258 2 -20.2541 -186.414 2.10033 -6.91664 
259 2 -21.6044 -184.075 1.14157 -7.09079 
260 2 -21.6044 -184.075 4.00629 -7.09079 
261 2 -17.5536 -186.415 1.15182 -6.91563 
262 2 -17.5536 -186.415 4.01655 -6.91563 
263 2 -18.9038 -184.075 3.05787 -7.09079 
264 2 -22.9547 -186.414 3.04884 -6.91773 
265 2 -10.8022 -184.077 0.212643 -7.09079 
266 2 -14.8531 -186.415 0.203331 -6.91472 
267 2 -16.2033 -184.076 10.7036 -7.09079 
268 2 -16.2033 -184.076 2.10945 -7.09079 
269 2 -12.1525 -186.416 10.7137 -6.91395 
270 2 -12.1525 -186.416 2.11957 -6.91395 
271 2 -13.5028 -184.076 1.16104 -7.09079 
272 2 -13.5028 -184.076 4.02577 -7.09079 
273 2 -9.45196 -186.416 1.17109 -6.91333 
274 2 -9.45196 -186.416 4.03582 -6.91333 
275 2 -10.8022 -184.077 3.07737 -7.09079 
276 2 -14.8531 -186.415 3.06806 -6.91472 
277 2 -2.70056 -184.077 0.232202 -7.09079 
278 2 -6.75141 -186.416 0.222623 -6.91286 
279 2 -8.10167 -184.077 10.7231 -7.09079 
280 2 -8.10167 -184.077 2.12898 -7.09079 
281 2 -4.05085 -186.416 10.7331 -6.91254 
282 2 -4.05085 -186.416 2.13888 -6.91254 
283 2 -5.40112 -184.077 1.18059 -7.09079 
284 2 -5.40112 -184.077 4.04531 -7.09079 
285 2 -1.35028 -186.416 1.19041 -6.91238 
286 2 -1.35028 -186.416 4.05514 -6.91238 
287 2 -2.70056 -184.077 3.09693 -7.09079 
288 2 -6.75141 -186.416 3.08735 -6.91286 
289 2 5.40112 -184.077 0.251775 -7.09079 
290 2 1.35028 -186.416 0.241949 -6.91238 
291 2 0 -184.077 10.7427 -7.09079 
292 2 0 -184.077 2.14854 -7.09079 
293 2 4.05085 -186.416 10.7524 -6.91254 
294 2 4.05085 -186.416 2.15821 -6.91254 
295 2 2.70056 -184.077 1.20016 -7.09079 
296 2 2.70056 -184.077 4.06488 -7.09079 
297 2 6.75141 -186.416 1.20974 -6.91286 
298 2 6.75141 -186.416 4.07446 -6.91286 
299 2 5.40112 -184.077 3.1165 -7.09079 
300 2 1.35028 -186.416 3.10667 -6.91238 
301 2 13.5028 -184.076 0.27132 -7.09079 
302 2 9.45196 -186.416 0.261268 -6.91333 
303 2 8.10167 -184.077 10.7623 -7.09079 
304 2 8.10167 -184.077 2.16811 -7.09079 
305 2 12.1525 -186.416 10.7717 -6.91395 
306 2 12.1525 -186.416 2.17751 -6.91395 
307 2 10.8022 -184.077 1.21972 -7.09079 
308 2 10.8022 -184.077 4.08444 -7.09079 
309 2 14.8531 -186.415 1.22903 -6.91472 
310 2 14.8531 -186.415 4.09376 -6.91472 
311 2 13.5028 -184.076 3.13604 -7.09079 
312 2 9.45196 -186.416 3.12599 -6.91333 
313 2 21.6044 -184.075 0.290793 -7.09079 
314 2 17.5536 -186.415 0.280539 -6.91563 
315 2 16.2033 -184.076 10.7818 -7.09079 
316 2 16.2033 -184.076 2.18764 -7.09079 
317 2 20.2541 -186.414 10.7909 -6.91664 
318 2 20.2541 -186.414 2.19676 -6.91664 
319 2 18.9038 -184.075 1.23922 -7.09079 
320 2 18.9038 -184.075 4.10395 -7.09079 
321 2 22.9547 -186.414 1.24825 -6.91773 
322 2 22.9547 -186.414 4.11297 -6.91773 
323 2 21.6044 -184.075 3.15552 -7.09079 
324 2 17.5536 -186.415 3.14526 -6.91563 
325 2 29.7059 -184.073 0.310149 -7.09079 
326 2 25.6552 -186.413 0.299719 -6.91888 
327 2 24.3049 -184.074 10.8013 -7.09079 
328 2 24.3049 -184.074 2.20708 -7.09079 
329 2 28.3557 -186.413 10.8101 -6.92007 
330 2 28.3557 -186.413 2.2159 -6.92007 
331 2 27.0054 -184.074 1.25862 -7.09079 
332 2 27.0054 -184.074 4.12335 -7.09079 
333 2 31.0561 -186.412 1.26734 -6.92126 
334 2 31.0561 -186.412 4.13207 -6.92126 
335 2 29.7059 -184.073 3.17487 -7.09079 
336 2 25.6552 -186.413 3.16444 -6.91888 
337 2 37.8072 -184.071 0.329339 -7.09079 
338 2 33.7566 -186.411 0.318764 -6.92246 
339 2 32.4063 -184.072 10.8206 -7.09079 
340 2 32.4063 -184.072 2.22638 -7.09079 
341 2 36.4571 -186.41 10.8291 -6.92364 
342 2 36.4571 -186.41 2.23489 -6.92364 
343 2 35.1068 -184.071 1.27787 -7.09079 
344 2 35.1068 -184.071 4.1426 -7.09079 
345 2 39.1575 -186.409 1.28627 -6.92479 
346 2 39.1575 -186.409 4.15099 -6.92479 
347 2 37.8072 -184.071 3.19406 -7.09079 
348 2 33.7566 -186.411 3.18349 -6.92246 
349 2 45.9085 -184.068 0.348311 -7.09079 
350 2 41.858 -186.408 0.337624 -6.92592 
351 2 40.5077 -184.07 10.8397 -7.09079 
352 2 40.5077 -184.07 2.24551 -7.09079 
353 2 44.5584 -186.407 10.8479 -6.927 
354 2 44.5584 -186.407 2.25368 -6.927 
355 2 43.2081 -184.069 1.29692 -7.09079 
356 2 43.2081 -184.069 4.16165 -7.09079 
357 2 47.2588 -186.406 1.30498 -6.92805 
358 2 47.2588 -186.406 4.1697 -6.92805 
359 2 45.9085 -184.068 3.21304 -7.09079 
360 2 41.858 -186.408 3.20235 -6.92592 
361 2 54.0096 -184.064 0.36701 -7.09079 
362 2 49.9591 -186.405 0.356249 -6.92905 
363 2 48.6088 -184.067 10.8586 -7.09079 
364 2 48.6088 -184.067 2.26439 -7.09079 
365 2 52.6595 -186.404 10.8664 -6.92999 
366 2 52.6595 -186.404 2.27221 -6.92999 
367 2 51.3092 -184.065 1.31572 -7.09079 
368 2 51.3092 -184.065 4.18044 -7.09079 
369 2 55.3599 -186.403 1.32342 -6.93089 
370 2 55.3599 -186.403 4.18814 -6.93089 
371 2 54.0096 -184.064 3.23173 -7.09079 
372 2 49.9591 -186.405 3.22097 -6.92905 
373 2 62.1105 -184.061 0.385382 -7.0908 
374 2 58.0602 -186.402 0.374586 -6.93172 
375 2 56.7099 -184.063 10.8772 -7.0908 
376 2 56.7099 -184.063 2.28299 -7.0908 
377 2 60.7605 -186.401 10.8846 -6.9325 
378 2 60.7605 -186.401 2.29044 -6.9325 
379 2 59.4102 -184.062 1.33421 -7.0908 
380 2 59.4102 -184.062 4.19893 -7.0908 
381 2 63.4608 -186.4 1.34153 -6.93323 
382 2 63.4608 -186.4 4.20626 -6.93323 
383 2 62.1105 -184.061 3.25011 -7.0908 
384 2 58.0602 -186.402 3.23931 -6.93172 
385 2 70.2113 -184.057 0.40337 -7.0908 
386 2 66.1611 -186.398 0.392581 -6.93391 
387 2 64.8108 -184.06 10.8954 -7.0908 
388 2 64.8108 -184.06 2.30124 -7.0908 
389 2 68.8614 -186.397 10.9025 -6.93457 
390 2 68.8614 -186.397 2.30831 -6.93457 
391 2 67.5111 -184.058 1.35233 -7.0908 
392 2 67.5111 -184.058 4.21705 -7.0908 
393 2 71.5617 -186.396 1.35927 -6.93521 
394 2 71.5617 -186.396 4.22399 -6.93521 
395 2 70.2113 -184.057 3.26809 -7.0908 
396 2 66.1611 -186.398 3.25731 -6.93391 
397 2 78.3121 -184.053 0.420924 -7.0908 
398 2 74.2619 -186.395 0.410181 -6.93586 
399 2 72.9116 -184.056 10.9133 -7.0908 
400 2 72.9116 -184.056 2.31909 -7.0908 
401 2 76.9622 -186.393 10.9199 -6.93651 
402 2 76.9622 -186.393 2.32577 -6.93651 
403 2 75.6118 -184.055 1.37003 -7.0908 
404 2 75.6118 -184.055 4.23476 -7.0908 
405 2 79.6624 -186.392 1.37658 -6.93718 
406 2 79.6624 -186.392 4.2413 -6.93718 
407 2 78.3121 -184.053 3.28565 -7.0908 
408 2 74.2619 -186.395 3.27491 -6.93585 
409 2 86.4127 -184.049 0.437994 -7.0908 
410 2 82.3627 -186.391 0.427339 -6.93788 
411 2 81.0123 -184.052 10.9307 -7.0908 
412 2 81.0123 -184.052 2.33649 -7.0908 
413 2 85.0629 -186.39 10.9369 -6.93862 
414 2 85.0629 -186.39 2.34277 -6.93862 
415 2 83.7125 -184.051 1.38727 -7.0908 
416 2 83.7125 -184.051 4.25199 -7.0908 
417 2 87.7631 -186.388 1.39342 -6.9394 
418 2 87.7631 -186.388 4.25814 -6.9394 
419 2 86.4127 -184.049 3.30272 -7.0908 
420 2 82.3627 -186.391 3.29206 -6.93788 
421 2 94.5133 -184.046 0.454541 -7.0908 
422 2 90.4633 -186.387 0.444011 -6.94025 
423 2 89.1129 -184.048 10.9476 -7.0908 
424 2 89.1129 -184.048 2.35339 -7.0908 
425 2 93.1635 -186.386 10.9534 -6.94115 
426 2 93.1635 -186.386 2.35927 -6.94115 
427 2 91.8131 -184.047 1.40399 -7.0908 
428 2 91.8131 -184.047 4.26872 -7.0908 
429 2 95.8637 -186.385 1.40974 -6.94213 
430 2 95.8637 -186.385 4.27447 -6.94213 
431 2 94.5133 -184.046 3.31927 -7.0908 
432 2 90.4633 -186.387 3.30874 -6.94025 
433 2 102.614 -184.042 0.470532 -7.0908 
434 2 98.5639 -186.383 0.460159 -6.94319 
435 2 97.2135 -184.044 10.9639 -7.0908 
436 2 97.2135 -184.044 2.36975 -7.0908 
437 2 101.264 -186.382 10.9694 -6.94433 
438 2 101.264 -186.382 2.37524 -6.94433 
439 2 99.9137 -184.043 1.42017 -7.0908 
440 2 99.9137 -184.043 4.2849 -7.0908 
441 2 103.964 -186.381 1.42553 -6.94556 
442 2 103.964 -186.381 4.29025 -6.94556 
443 2 102.614 -184.042 3.33526 -7.0908 
444 2 98.5639 -186.383 3.32488 -6.94319 
445 2 110.715 -184.038 0.485943 -7.0908 
446 2 106.665 -186.38 0.475756 -6.94689 
447 2 105.314 -184.041 10.9797 -7.0908 
448 2 105.314 -184.041 2.38555 -7.0908 
449 2 109.365 -186.379 10.9848 -6.94832 
450 2 109.365 -186.379 2.39065 -6.94832 
451 2 108.014 -184.039 1.43578 -7.0908 
452 2 108.014 -184.039 4.3005 -7.0908 
453 2 112.065 -186.377 1.44075 -6.94984 
454 2 112.065 -186.377 4.30547 -6.94984 
455 2 110.715 -184.038 3.35067 -7.0908 
456 2 106.665 -186.38 3.34048 -6.94689 
457 2 118.815 -184.035 0.500758 -7.0908 
458 2 114.765 -186.376 0.490781 -6.95146 
459 2 113.415 -184.037 10.9949 -7.0908 
460 2 113.415 -184.037 2.40076 -7.0908 
461 2 117.465 -186.375 10.9997 -6.95316 
462 2 117.465 -186.375 2.40548 -6.95316 
463 2 116.115 -184.036 1.45079 -7.0908 
464 2 116.115 -184.036 4.31552 -7.0908 
465 2 120.166 -186.374 1.45538 -6.95492 
466 2 120.166 -186.374 4.32011 -6.95492 
467 2 118.815 -184.035 3.36548 -7.0908 
468 2 114.765 -186.376 3.35551 -6.95146 
469 2 126.916 -184.032 0.51497 -7.09081 
470 2 122.866 -186.373 0.505223 -6.95676 
471 2 121.515 -184.034 11.0096 -7.0908 
472 2 121.515 -184.034 2.41538 -7.09081 
473 2 125.566 -186.372 11.0139 -6.95864 
474 2 125.566 -186.372 2.41972 -6.95864 
475 2 124.216 -184.033 1.46521 -7.0908 
476 2 124.216 -184.033 4.32993 -7.09081 
477 2 128.266 -186.371 1.46943 -6.96057 
478 2 128.266 -186.371 4.33416 -6.96057 
479 2 126.916 -184.032 3.37969 -7.09081 
480 2 122.866 -186.373 3.36995 -6.95675 
481 2 135.017 -184.029 0.52858 -7.09081 
482 2 130.967 -186.37 0.519076 -6.96252 
483 2 129.616 -184.031 11.0236 -7.09081 
484 2 129.616 -184.031 2.42939 -7.09081 
485 2 133.667 -186.369 11.0276 -6.96448 
486 2 133.667 -186.369 2.43338 -6.96448 
487 2 132.316 -184.03 1.47902 -7.09081 
488 2 132.316 -184.03 4.34374 -7.09081 
489 2 136.367 -186.368 1.48289 -6.96646 
490 2 136.367 -186.368 4.34762 -6.96646 
491 2 135.017 -184.029 3.3933 -7.09081 
492 2 130.967 -186.37 3.3838 -6.96252 
493 2 143.118 -184.026 0.541596 -7.09081 
494 2 139.067 -186.367 0.532343 -6.96844 
495 2 137.717 -184.028 11.037 -7.09081 
496 2 137.717 -184.028 2.4428 -7.09081 
497 2 141.768 -186.366 11.0406 -6.97041 
498 2 141.768 -186.366 2.44645 -6.97041 
499 2 140.417 -184.027 1.49223 -7.09081 
500 2 140.417 -184.027 4.35696 -7.09081 
501 2 144.468 -186.365 1.49578 -6.97238 
502 2 144.468 -186.365 4.3605 -6.97238 
503 2 143.118 -184.026 3.40632 -7.09081 
504 2 139.067 -186.367 3.39707 -6.96844 
505 2 151.219 -184.024 0.554029 -7.09081 
506 2 147.168 -186.364 0.545034 -6.97433 
507 2 145.818 -184.025 11.0498 -7.09081 
508 2 145.818 -184.025 2.45562 -7.09081 
509 2 149.869 -186.364 11.0531 -6.97627 
510 2 149.869 -186.364 2.45895 -6.97627 
511 2 148.518 -184.024 1.50486 -7.09081 
512 2 148.518 -184.024 4.36958 -7.09081 
513 2 152.569 -186.363 1.50809 -6.97818 
514 2 152.569 -186.363 4.37281 -6.97818 
515 2 151.219 -184.024 3.41875 -7.09081 
516 2 147.168 -186.364 3.40976 -6.97433 
517 2 159.32 -184.021 0.565896 -7.09081 
518 2 155.27 -186.362 0.557161 -6.98007 
519 2 153.919 -184.023 11.062 -7.09081 
520 2 153.919 -184.023 2.46786 -7.09081 
521 2 157.97 -186.361 11.0651 -6.98192 
522 2 157.97 -186.361 2.4709 -6.98192 
523 2 156.619 -184.022 1.51691 -7.09081 
524 2 156.619 -184.022 4.38163 -7.09081 
525 2 160.67 -186.36 1.51985 -6.98374 
526 2 160.67 -186.36 4.38457 -6.98374 
527 2 159.32 -184.021 3.43062 -7.09081 
528 2 155.27 -186.362 3.42189 -6.98006 
529 2 167.421 -184.019 0.577218 -7.09082 
530 2 163.371 -186.36 0.568741 -6.98553 
531 2 162.02 -184.021 11.0737 -7.09081 
532 2 162.02 -184.021 2.47955 -7.09081 
533 2 166.071 -186.359 11.0765 -6.98727 
534 2 166.071 -186.359 2.4823 -6.98727 
535 2 164.721 -184.02 1.52841 -7.09081 
536 2 164.721 -184.02 4.39314 -7.09081 
537 2 168.772 -186.358 1.53108 -6.98898 
538 2 168.772 -186.358 4.3958 -6.98898 
539 2 167.421 -184.019 3.44194 -7.09082 
540 2 163.371 -186.36 3.43347 -6.98553 
541 2 175.522 -184.017 0.588017 -7.09082 
542 2 171.472 -186.358 0.579795 -6.99064 
543 2 170.121 -184.019 11.0849 -7.09082 
544 2 170.121 -184.019 2.49069 -7.09082 
545 2 174.172 -186.357 11.0874 -6.99225 
546 2 174.172 -186.357 2.49318 -6.99225 
547 2 172.822 -184.018 1.53938 -7.09082 
548 2 172.822 -184.018 4.40411 -7.09082 
549 2 176.873 -186.357 1.54179 -6.99381 
550 2 176.873 -186.357 4.40651 -6.99381 
551 2 175.522 -184.017 3.45274 -7.09082 
552 2 171.472 -186.358 3.44452 -6.99064 
553 2 183.624 -184.016 0.598314 -7.09083 
554 2 179.573 -186.356 0.590343 -6.99532 
555 2 178.223 -184.017 11.0955 -7.09083 
556 2 178.223 -184.017 2.50132 -7.09083 
557 2 182.274 -186.355 11.0977 -6.99678 
558 2 182.274 -186.355 2.50357 -6.99679 
559 2 180.923 -184.016 1.54984 -7.09083 
560 2 180.923 -184.016 4.41457 -7.09083 
561 2 184.974 -186.355 1.55201 -6.99819 
562 2 184.974 -186.355 4.41674 -6.99819 
563 2 183.624 -184.016 3.46304 -7.09083 
564 2 179.573 -186.356 3.45507 -6.99532 
565 2 191.725 -184.014 0.608136 -7.1083 
566 2 187.675 -186.354 0.600408 -6.99955 
567 2 186.324 -184.015 11.1056 -7.09083 
568 2 186.324 -184.015 2.51146 -7.09083 
569 2 190.376 -186.354 11.1076 -7.00036 
570 2 190.376 -186.354 2.51348 -7.00036 
571 2 189.025 -184.015 1.55982 -7.09084 
572 2 189.025 -184.015 4.42455 -7.09084 
573 2 193.076 -186.353 1.56177 -6.76037 
574 2 193.076 -186.353 4.42649 -6.76037 
575 2 191.725 -184.014 3.47286 -7.1083 
576 2 187.675 -186.354 3.46513 -6.99955 
577 2 -189.024 -179.336 11.3256 -7.09123 
578 2 -193.075 -181.674 11.3237 -7.10825 
579 2 -194.425 -179.335 10.3643 -6.86642 
580 2 -194.425 -179.335 1.77014 -6.86642 
581 2 -190.375 -181.675 10.372 -7.09122 
582 2 -190.375 -181.675 1.77784 -7.09122 
583 2 -191.725 -179.335 0.81839 -7.09036 
584 2 -191.725 -179.335 3.68311 -7.09036 
585 2 -187.674 -181.675 0.82617 -7.09123 
586 2 -187.674 -181.675 3.69089 -7.09123 
587 2 -189.024 -179.336 2.73142 -7.09123 
588 2 -193.075 -181.674 2.72955 -7.10825 
589 2 -180.923 -179.337 11.3355 -7.09122 
590 2 -184.974 -181.676 11.3335 -7.09123 
591 2 -186.324 -179.336 10.3739 -7.09122 
592 2 -186.324 -179.336 1.77978 -7.09122 
593 2 -182.273 -181.676 10.3819 -7.09122 
594 2 -182.273 -181.676 1.78772 -7.09122 
595 2 -183.623 -179.337 0.828184 -7.09122 
596 2 -183.623 -179.337 3.69291 -7.09122 
597 2 -179.573 -181.677 0.836217 -7.09122 
598 2 -179.573 -181.677 3.70094 -7.09122 
599 2 -180.923 -179.337 2.74137 -7.09122 
600 2 -184.974 -181.676 2.73928 -7.09123 
601 2 -172.821 -179.339 11.346 -7.09122 
602 2 -176.872 -181.678 11.3437 -7.09122 
603 2 -178.222 -179.338 10.3841 -7.09122 
604 2 -178.222 -179.338 1.78989 -7.09122 
605 2 -174.172 -181.678 10.3923 -7.09122 
606 2 -174.172 -181.678 1.7981 -7.09122 
607 2 -175.522 -179.338 0.838465 -7.09122 
608 2 -175.522 -179.338 3.70319 -7.09122 
609 2 -171.471 -181.679 0.846757 -7.09122 
610 2 -171.471 -181.679 3.71148 -7.09122 
611 2 -172.821 -179.339 2.75182 -7.09122 
612 2 -176.872 -181.678 2.74949 -7.09122 
613 2 -164.72 -179.341 11.357 -7.09122 
614 2 -168.771 -181.679 11.3544 -7.09122 
615 2 -170.121 -179.339 10.3947 -7.09122 
616 2 -170.121 -179.339 1.80051 -7.09122 
617 2 -166.07 -181.68 10.4032 -7.09122 
618 2 -166.07 -181.68 1.80898 -7.09122 
619 2 -167.42 -179.34 0.849259 -7.09122 
620 2 -167.42 -179.34 3.71398 -7.09122 
621 2 -163.37 -181.681 0.857816 -7.09122 
622 2 -163.37 -181.681 3.72254 -7.09122 
623 2 -164.72 -179.341 2.76279 -7.09122 
624 2 -168.771 -181.679 2.7602 -7.09122 
625 2 -156.619 -179.343 11.3685 -7.09122 
626 2 -160.67 -181.681 11.3656 -7.09122 
627 2 -162.019 -179.341 10.4058 -7.09122 
628 2 -162.019 -179.341 1.81166 -7.09122 
629 2 -157.969 -181.682 10.4146 -7.09122 
630 2 -157.969 -181.682 1.8204 -7.09122 
631 2 -159.319 -179.342 0.86059 -7.09122 
632 2 -159.319 -179.342 3.72531 -7.09122 
633 2 -155.269 -181.683 0.869419 -7.09122 
634 2 -155.269 -181.683 3.73414 -7.09122 
635 2 -156.619 -179.343 2.77431 -7.09122 
636 2 -160.67 -181.681 2.77144 -7.09122 
637 2 -148.517 -179.345 11.3806 -7.09122 
638 2 -152.568 -181.684 11.3774 -7.09122 
639 2 -153.918 -179.344 10.4175 -7.09122 
640 2 -153.918 -179.344 1.82336 -7.09122 
641 2 -149.868 -181.684 10.4265 -7.09122 
642 2 -149.868 -181.684 1.83237 -7.09122 
643 2 -151.218 -179.344 0.872485 -7.09122 
644 2 -151.218 -179.344 3.73721 -7.09122 
645 2 -147.168 -181.685 0.881586 -7.09122 
646 2 -147.168 -181.685 3.74631 -7.09122 
647 2 -148.517 -179.345 2.7864 -7.09122 
648 2 -152.568 -181.684 2.78323 -7.09122 
649 2 -140.416 -179.348 11.3932 -7.09122 
650 2 -144.467 -181.686 11.3898 -7.09122 
651 2 -145.817 -179.346 10.4298 -7.09122 
652 2 -145.817 -179.346 1.83565 -7.09122 
653 2 -141.767 -181.687 10.4391 -7.09122 
654 2 -141.767 -181.687 1.84493 -7.09122 
655 2 -143.117 -179.347 0.884965 -7.09122 
656 2 -143.117 -179.347 3.74969 -7.09122 
657 2 -139.067 -181.688 0.894338 -7.09122 
658 2 -139.067 -181.688 3.75906 -7.09122 
659 2 -140.416 -179.348 2.79908 -7.09122 
660 2 -144.467 -181.686 2.79559 -7.09122 
661 2 -132.316 -179.35 11.4065 -7.09122 
662 2 -136.366 -181.689 11.4027 -7.09122 
663 2 -137.716 -179.349 10.4427 -7.09122 
664 2 -137.716 -179.349 1.84853 -7.09122 
665 2 -133.666 -181.69 10.4523 -7.09122 
666 2 -133.666 -181.69 1.85808 -7.09122 
667 2 -135.016 -179.349 0.898051 -7.09122 
668 2 -135.016 -179.349 3.76278 -7.09122 
669 2 -130.966 -181.691 0.907692 -7.09122 
670 2 -130.966 -181.691 3.77242 -7.09122 
671 2 -132.316 -179.35 2.81237 -7.09122 
672 2 -136.366 -181.689 2.80854 -7.09122 
673 2 -124.215 -179.353 11.4205 -7.09122 
674 2 -128.266 -181.692 11.4163 -7.09122 
675 2 -129.615 -179.351 10.4562 -7.09122 
676 2 -129.615 -179.351 1.86203 -7.09122 
677 2 -125.565 -181.693 10.466 -7.09122 
678 2 -125.565 -181.693 1.87184 -7.09122 
679 2 -126.915 -179.352 0.911758 -7.09122 
680 2 -126.915 -179.352 3.77648 -7.09122 
681 2 -122.865 -181.694 0.921659 -7.09122 
682 2 -122.865 -181.694 3.78638 -7.09122 
683 2 -124.215 -179.353 2.82628 -7.09122 
684 2 -128.266 -181.692 2.8221 -7.09122 
685 2 -116.114 -179.357 11.435 -7.09122 
686 2 -120.165 -181.695 11.4304 -7.09122 
687 2 -121.515 -179.355 10.4703 -7.09122 
688 2 -121.515 -179.355 1.87615 -7.09122 
689 2 -117.465 -181.696 10.4804 -7.09122 
690 2 -117.465 -181.696 1.88622 -7.09122 
691 2 -118.814 -179.356 0.926096 -7.09122 
692 2 -118.814 -179.356 3.79082 -7.09122 
693 2 -114.764 -181.697 0.936245 -7.09122 
694 2 -114.764 -181.697 3.80097 -7.09122 
695 2 -116.114 -179.357 2.84083 -7.09122 
696 2 -120.165 -181.695 2.83627 -7.09122 
697 2 -108.014 -179.36 11.4502 -7.09122 
698 2 -112.064 -181.698 11.4452 -7.09122 
699 2 -113.414 -179.358 10.4851 -7.09122 
700 2 -113.414 -179.358 1.89092 -7.09122 
701 2 -109.364 -181.699 10.4954 -7.09122 
702 2 -109.364 -181.699 1.90122 -7.09122 
703 2 -110.714 -179.359 0.941069 -7.09122 
704 2 -110.714 -179.359 3.80579 -7.09122 
705 2 -106.664 -181.7 0.951447 -7.09122 
706 2 -106.664 -181.7 3.81617 -7.09122 
707 2 -108.014 -179.36 2.85602 -7.09122 
708 2 -112.064 -181.698 2.85106 -7.09122 
709 2 -99.913 -179.364 0.00710399 -7.09122 
710 2 -103.964 -181.702 0.00174181 -7.09122 
711 2 -105.313 -179.361 10.5005 -7.09122 
712 2 -105.313 -179.361 1.90631 -7.09122 
713 2 -101.263 -181.703 10.511 -7.09122 
714 2 -101.263 -181.703 1.91683 -7.09122 
715 2 -102.613 -179.363 0.956673 -7.09122 
716 2 -102.613 -179.363 3.8214 -7.09122 
717 2 -98.5633 -181.704 0.967256 -7.09122 
718 2 -98.5633 -181.704 3.83198 -7.09122 
719 2 -99.913 -179.364 2.87183 -7.09122 
720 2 -103.964 -181.702 2.86647 -7.09122 
721 2 -91.8125 -179.368 0.0235263 -7.09122 
722 2 -95.8631 -181.705 0.0177495 -7.09122 
723 2 -97.2129 -179.365 10.5165 -7.09122 