ITEM: TIMESTEP
7729
ITEM: NUMBER OF ATOMS
92160
ITEM: BOX BOUNDS xy xz yz pp pp pp
-195.174 198.242 3.28489
-186.649 187.025 -0.217241
0 11.4589 0.376273
ITEM: ATOMS id type x y z c_peatom 
2 2 -193.773 -185.509 11.3295 -7.00534 
5 2 -191.048 -185.541 10.3778 -6.98641 
6 2 -190.885 -185.823 1.78361 -6.98641 
9 2 -188.16 -185.855 0.831955 -6.98492 
10 2 -188.214 -185.761 3.69668 -6.98492 
12 2 -193.61 -185.791 2.73532 -7.00534 
14 2 -185.651 -185.51 11.3392 -6.98342 
17 2 -182.926 -185.542 10.3877 -6.9819 
18 2 -182.763 -185.824 1.79352 -6.9819 
21 2 -180.038 -185.856 0.84202 -6.98037 
22 2 -180.092 -185.762 3.70674 -6.98037 
24 2 -185.488 -185.793 2.74507 -6.98342 
26 2 -177.53 -185.512 11.3495 -6.97882 
29 2 -174.804 -185.544 10.3981 -6.97727 
30 2 -174.641 -185.826 1.8039 -6.97727 
33 2 -171.916 -185.858 0.852568 -6.97571 
34 2 -171.97 -185.764 3.71729 -6.97571 
36 2 -177.367 -185.794 2.7553 -6.97882 
38 2 -169.408 -185.513 11.3602 -6.97415 
41 2 -166.683 -185.545 10.409 -6.97259 
42 2 -166.52 -185.827 1.81479 -6.97259 
45 2 -163.794 -185.859 0.863621 -6.97103 
46 2 -163.849 -185.765 3.72835 -6.97103 
48 2 -169.245 -185.795 2.76601 -6.97415 
50 2 -161.286 -185.515 11.3714 -6.96949 
53 2 -158.561 -185.547 10.4204 -6.96795 
54 2 -158.398 -185.829 1.82619 -6.96795 
57 2 -155.673 -185.861 0.875201 -6.96644 
58 2 -155.727 -185.767 3.73993 -6.96644 
60 2 -161.123 -185.797 2.77724 -6.96949 
62 2 -153.165 -185.517 11.3832 -6.96495 
65 2 -150.44 -185.549 10.4323 -6.96349 
66 2 -150.277 -185.831 1.83813 -6.96349 
69 2 -147.551 -185.863 0.887328 -6.96207 
70 2 -147.606 -185.769 3.75205 -6.96207 
72 2 -153.002 -185.799 2.789 -6.96495 
74 2 -145.044 -185.519 11.3955 -6.96069 
77 2 -142.318 -185.551 10.4448 -6.95935 
78 2 -142.155 -185.833 1.85063 -6.95935 
81 2 -139.43 -185.865 0.900019 -6.95807 
82 2 -139.485 -185.771 3.76474 -6.95807 
84 2 -144.881 -185.801 2.80131 -6.96069 
86 2 -136.922 -185.521 11.4084 -6.95686 
89 2 -134.197 -185.553 10.4579 -6.95573 
90 2 -134.034 -185.835 1.86371 -6.95573 
93 2 -131.309 -185.868 0.913287 -6.95468 
94 2 -131.363 -185.774 3.77801 -6.95468 
96 2 -136.759 -185.803 2.81419 -6.95686 
98 2 -128.801 -185.524 11.4218 -6.95371 
101 2 -126.076 -185.556 10.4715 -6.95282 
102 2 -125.913 -185.838 1.87736 -6.95282 
105 2 -123.188 -185.87 0.92714 -6.952 
106 2 -123.242 -185.776 3.79186 -6.952 
108 2 -128.638 -185.806 2.82766 -6.95371 
110 2 -120.68 -185.526 11.4359 -6.95126 
113 2 -117.955 -185.559 10.4858 -6.95058 
114 2 -117.792 -185.841 1.89161 -6.95058 
117 2 -115.067 -185.873 0.941581 -6.94997 
118 2 -115.122 -185.779 3.80631 -6.94997 
120 2 -120.517 -185.808 2.8417 -6.95126 
122 2 -112.559 -185.529 11.4505 -6.94941 
125 2 -109.834 -185.561 10.5006 -6.94891 
126 2 -109.671 -185.844 1.90644 -6.94891 
129 2 -106.946 -185.876 0.956606 -6.94844 
130 2 -107.001 -185.782 3.82133 -6.94844 
132 2 -112.397 -185.811 2.85634 -6.94941 
134 2 -104.221 -185.908 0.00683427 -6.94802 
137 2 -101.714 -185.565 10.516 -6.94763 
138 2 -101.551 -185.847 1.92185 -6.94763 
141 2 -98.8256 -185.879 0.972203 -6.94726 
142 2 -98.8799 -185.785 3.83693 -6.94726 
144 2 -104.276 -185.814 2.87156 -6.94802 
146 2 -96.1006 -185.912 0.0226178 -6.94692 
149 2 -93.5928 -185.568 10.532 -6.94657 
150 2 -93.4298 -185.85 1.93782 -6.94657 
153 2 -90.7048 -185.882 0.988352 -6.94623 
154 2 -90.7591 -185.788 3.85308 -6.94623 
156 2 -96.1549 -185.817 2.88734 -6.94691 
158 2 -87.9798 -185.915 0.0389442 -6.94588 
161 2 -85.472 -185.571 10.5485 -6.94551 
162 2 -85.309 -185.853 1.95432 -6.94551 
165 2 -82.584 -185.886 1.00502 -6.9451 
166 2 -82.6383 -185.792 3.86975 -6.9451 
168 2 -88.0341 -185.821 2.90367 -6.94588 
170 2 -79.8589 -185.918 0.0557821 -6.94466 
173 2 -77.3511 -185.574 10.5655 -6.94415 
174 2 -77.1882 -185.856 1.97132 -6.94415 
177 2 -74.4631 -185.889 1.02218 -6.94358 
178 2 -74.5174 -185.795 3.88691 -6.94359 
180 2 -79.9132 -185.824 2.92051 -6.94466 
182 2 -71.738 -185.921 0.0730926 -6.94296 
185 2 -69.2302 -185.577 10.5829 -6.94228 
186 2 -69.0672 -185.86 1.98878 -6.94228 
189 2 -66.3421 -185.892 1.03978 -6.94154 
190 2 -66.3964 -185.798 3.90451 -6.94154 
192 2 -71.7923 -185.827 2.93782 -6.94296 
194 2 -63.617 -185.924 0.0908302 -6.94075 
197 2 -61.1091 -185.58 10.6008 -6.93992 
198 2 -60.9462 -185.863 2.00665 -6.93992 
201 2 -58.221 -185.895 1.05778 -6.93905 
202 2 -58.2753 -185.801 3.9225 -6.93905 
204 2 -63.6713 -185.83 2.95555 -6.94075 
206 2 -55.4959 -185.927 0.108945 -6.93814 
209 2 -52.988 -185.583 10.619 -6.9372 
210 2 -52.825 -185.865 2.02487 -6.9372 
213 2 -50.0998 -185.898 1.07611 -6.93624 
214 2 -50.1541 -185.804 3.94084 -6.93624 
216 2 -55.5502 -185.833 2.97367 -6.93814 
218 2 -47.3746 -185.93 0.127384 -6.93527 
221 2 -44.8667 -185.586 10.6376 -6.9343 
222 2 -44.7037 -185.868 2.04341 -6.9343 
225 2 -41.9785 -185.9 1.09474 -6.93333 
226 2 -42.0328 -185.806 3.95946 -6.93334 
228 2 -47.4289 -185.836 2.99211 -6.93527 
230 2 -39.2532 -185.932 0.146093 -6.93239 
233 2 -36.7452 -185.588 10.6564 -6.93149 
234 2 -36.5823 -185.87 2.0622 -6.93149 
237 2 -33.857 -185.902 1.1136 -6.93065 
238 2 -33.9113 -185.808 3.97832 -6.93065 
240 2 -39.3076 -185.838 3.01082 -6.93239 
242 2 -31.1317 -185.934 0.165021 -6.9299 
245 2 -28.6237 -185.59 10.6754 -6.92925 
246 2 -28.4607 -185.872 2.08119 -6.92925 
249 2 -25.7354 -185.904 1.13264 -6.92871 
250 2 -25.7897 -185.81 3.99737 -6.92871 
252 2 -31.186 -185.84 3.02975 -6.9299 
254 2 -23.0101 -185.935 0.184116 -6.92829 
257 2 -20.502 -185.591 10.6945 -6.92799 
258 2 -20.3391 -185.873 2.10033 -6.92799 
261 2 -17.6137 -185.905 1.15182 -6.92782 
262 2 -17.668 -185.811 4.01655 -6.92782 
264 2 -23.0644 -185.841 3.04884 -6.92829 
266 2 -14.8883 -185.936 0.203331 -6.92777 
269 2 -12.3802 -185.591 10.7137 -6.92785 
270 2 -12.2173 -185.874 2.11957 -6.92785 
273 2 -9.49191 -185.905 1.17109 -6.92805 
274 2 -9.54622 -185.811 4.03582 -6.92805 
276 2 -14.9427 -185.842 3.06806 -6.92777 
278 2 -6.76653 -185.936 0.222623 -6.92838 
281 2 -4.25839 -185.591 10.7331 -6.92883 
282 2 -4.09545 -185.874 2.13888 -6.92883 
285 2 -1.37007 -185.905 1.19041 -6.9294 
286 2 -1.42438 -185.811 4.05514 -6.9294 
288 2 -6.82084 -185.842 3.08735 -6.92838 
290 2 1.35532 -185.936 0.241949 -6.93009 
293 2 3.86347 -185.591 10.7524 -6.93088 
294 2 4.0264 -185.873 2.15821 -6.93088 
297 2 6.75178 -185.904 1.20974 -6.93179 
298 2 6.69747 -185.81 4.07446 -6.93179 
300 2 1.30101 -185.842 3.10667 -6.93009 
302 2 9.47717 -185.935 0.261268 -6.93278 
305 2 11.9853 -185.589 10.7717 -6.93383 
306 2 12.1482 -185.872 2.17751 -6.93383 
309 2 14.8736 -185.903 1.22903 -6.93492 
310 2 14.8193 -185.808 4.09376 -6.93492 
312 2 9.42286 -185.841 3.12599 -6.93278 
314 2 17.599 -185.933 0.280539 -6.93604 
317 2 20.1071 -185.588 10.7909 -6.93717 
318 2 20.27 -185.87 2.19676 -6.93717 
321 2 22.9954 -185.9 1.24825 -6.9383 
322 2 22.9411 -185.806 4.11297 -6.9383 
324 2 17.5447 -185.839 3.14526 -6.93604 
326 2 25.7207 -185.931 0.299719 -6.93943 
329 2 28.2288 -185.585 10.8101 -6.94053 
330 2 28.3917 -185.867 2.2159 -6.94053 
333 2 31.1171 -185.898 1.26734 -6.94161 
334 2 31.0627 -185.804 4.13207 -6.94161 
336 2 25.6664 -185.837 3.16444 -6.93942 
338 2 33.8424 -185.928 0.318764 -6.94266 
341 2 36.3504 -185.582 10.8291 -6.94366 
342 2 36.5133 -185.864 2.23489 -6.94366 
345 2 39.2386 -185.895 1.28627 -6.94462 
346 2 39.1843 -185.801 4.15099 -6.94462 
348 2 33.788 -185.834 3.18349 -6.94266 
350 2 41.9639 -185.925 0.337624 -6.94554 
353 2 44.4719 -185.579 10.8479 -6.9464 
354 2 44.6348 -185.861 2.25368 -6.9464 
357 2 47.3601 -185.891 1.30498 -6.94721 
358 2 47.3057 -185.797 4.1697 -6.94721 
360 2 41.9096 -185.831 3.20235 -6.94554 
362 2 50.0853 -185.921 0.356249 -6.94796 
365 2 52.5932 -185.575 10.8664 -6.94865 
366 2 52.7562 -185.857 2.27221 -6.94865 
369 2 55.4814 -185.887 1.32342 -6.94929 
370 2 55.4271 -185.793 4.18814 -6.94929 
372 2 50.031 -185.827 3.22097 -6.94795 
374 2 58.2065 -185.917 0.374586 -6.9499 
377 2 60.7145 -185.571 10.8846 -6.95049 
378 2 60.8774 -185.853 2.29044 -6.95049 
381 2 63.6025 -185.883 1.34153 -6.95107 
382 2 63.5482 -185.789 4.20626 -6.95107 
384 2 58.1522 -185.823 3.23931 -6.9499 
386 2 66.3277 -185.913 0.392581 -6.95166 
389 2 68.8356 -185.567 10.9025 -6.95226 
390 2 68.9985 -185.849 2.30831 -6.95226 
393 2 71.7236 -185.879 1.35927 -6.9529 
394 2 71.6693 -185.785 4.22399 -6.9529 
396 2 66.2734 -185.819 3.25731 -6.95166 
398 2 74.4487 -185.909 0.410181 -6.95357 
401 2 76.9566 -185.563 10.9199 -6.9543 
402 2 77.1195 -185.845 2.32577 -6.9543 
405 2 79.8446 -185.875 1.37658 -6.9551 
406 2 79.7903 -185.781 4.2413 -6.9551 
408 2 74.3944 -185.815 3.27491 -6.95357 
410 2 82.5697 -185.905 0.427339 -6.95596 
413 2 85.0775 -185.558 10.9369 -6.95691 
414 2 85.2404 -185.84 2.34277 -6.95691 
417 2 87.9655 -185.87 1.39342 -6.95795 
418 2 87.9112 -185.776 4.25814 -6.95795 
420 2 82.5154 -185.81 3.29206 -6.95596 
422 2 90.6906 -185.9 0.444011 -6.95909 
425 2 93.1984 -185.554 10.9534 -6.96034 
426 2 93.3613 -185.836 2.35927 -6.96034 
429 2 96.0864 -185.866 1.40974 -6.96169 
430 2 96.0321 -185.772 4.27447 -6.96169 
432 2 90.6363 -185.806 3.30874 -6.95909 
434 2 98.8114 -185.896 0.460159 -6.96314 
437 2 101.319 -185.55 10.9694 -6.96468 
438 2 101.482 -185.832 2.37524 -6.96468 
441 2 104.207 -185.862 1.42553 -6.96632 
442 2 104.153 -185.768 4.29025 -6.96632 
444 2 98.7571 -185.802 3.32488 -6.96314 
446 2 106.932 -185.892 0.475756 -6.96803 
449 2 109.44 -185.546 10.9848 -6.96979 
450 2 109.603 -185.828 2.39065 -6.96979 
453 2 112.328 -185.858 1.44075 -6.9716 
454 2 112.274 -185.764 4.30547 -6.9716 
456 2 106.878 -185.798 3.34048 -6.96803 
458 2 115.053 -185.888 0.490781 -6.97344 
461 2 117.561 -185.542 10.9997 -6.97531 
462 2 117.724 -185.824 2.40548 -6.97531 
465 2 120.449 -185.854 1.45538 -6.9772 
466 2 120.395 -185.76 4.32011 -6.9772 
468 2 114.999 -185.794 3.35551 -6.97344 
470 2 123.174 -185.884 0.505223 -6.9791 
473 2 125.682 -185.538 11.0139 -6.98101 
474 2 125.845 -185.82 2.41972 -6.98101 
477 2 128.57 -185.85 1.46943 -6.98291 
478 2 128.516 -185.756 4.33416 -6.98291 
480 2 123.12 -185.79 3.36995 -6.9791 
482 2 131.295 -185.881 0.519076 -6.98481 
485 2 133.803 -185.535 11.0276 -6.98669 
486 2 133.966 -185.817 2.43338 -6.98669 
489 2 136.691 -185.847 1.48289 -6.98855 
490 2 136.637 -185.753 4.34762 -6.98855 
492 2 131.241 -185.787 3.3838 -6.98481 
494 2 139.416 -185.877 0.532343 -6.99038 
497 2 141.924 -185.531 11.0406 -6.99218 
498 2 142.087 -185.814 2.44645 -6.99218 
501 2 144.812 -185.844 1.49578 -6.99394 
502 2 144.758 -185.75 4.3605 -6.99394 
504 2 139.362 -185.783 3.39707 -6.99038 
506 2 147.538 -185.874 0.545034 -6.99567 
516 2 147.483 -185.78 3.40976 -6.99567 
46082 2 -193.665 -185.697 5.60004 -7.00534 
46085 2 -190.939 -185.729 4.64834 -6.98641 
46086 2 -190.994 -185.635 7.51306 -6.98641 
46089 2 -188.268 -185.667 6.5614 -6.98492 
46090 2 -188.322 -185.573 9.42613 -6.98492 
46092 2 -193.719 -185.603 8.46477 -7.00534 
46094 2 -185.543 -185.698 5.6098 -6.98342 
46097 2 -182.817 -185.73 4.65824 -6.9819 
46098 2 -182.872 -185.636 7.52297 -6.9819 
46101 2 -180.146 -185.668 6.57147 -6.98037 
46102 2 -180.201 -185.574 9.43619 -6.98037 
46104 2 -185.597 -185.604 8.47452 -6.98342 
46106 2 -177.421 -185.7 5.62002 -6.97882 
46109 2 -174.696 -185.732 4.66863 -6.97727 
46110 2 -174.75 -185.638 7.53335 -6.97727 
46113 2 -172.025 -185.669 6.58202 -6.97571 
46114 2 -172.079 -185.575 9.44674 -6.97571 
46116 2 -177.475 -185.606 8.48475 -6.97882 
46118 2 -169.299 -185.701 5.63074 -6.97415 
46121 2 -166.574 -185.733 4.67951 -6.97259 
46122 2 -166.628 -185.639 7.54424 -6.97259 
46125 2 -163.903 -185.671 6.59307 -6.97103 
46126 2 -163.957 -185.577 9.45779 -6.97103 
46128 2 -169.354 -185.607 8.49546 -6.97415 
46130 2 -161.178 -185.703 5.64196 -6.96949 
46133 2 -158.452 -185.735 4.69091 -6.96795 
46134 2 -158.507 -185.641 7.55564 -6.96795 
46137 2 -155.781 -185.673 6.60465 -6.96644 
46138 2 -155.836 -185.579 9.46937 -6.96644 
46140 2 -161.232 -185.609 8.50669 -6.96949 
46142 2 -153.056 -185.705 5.65372 -6.96495 
46145 2 -150.331 -185.737 4.70286 -6.96349 
46146 2 -150.385 -185.643 7.56758 -6.96349 
46149 2 -147.66 -185.675 6.61678 -6.96207 
46150 2 -147.714 -185.581 9.4815 -6.96207 
46152 2 -153.111 -185.611 8.51845 -6.96495 
46154 2 -144.935 -185.707 5.66604 -6.96069 
46157 2 -142.21 -185.739 4.71536 -6.95935 
46158 2 -142.264 -185.645 7.58008 -6.95935 
46161 2 -139.539 -185.677 6.62947 -6.95807 
46162 2 -139.593 -185.583 9.49419 -6.95807 
46164 2 -144.989 -185.613 8.53076 -6.96068 
46166 2 -136.814 -185.709 5.67892 -6.95686 
46169 2 -134.089 -185.741 4.72843 -6.95573 
46170 2 -134.143 -185.647 7.59316 -6.95573 
46173 2 -131.418 -185.68 6.64274 -6.95468 
46174 2 -131.472 -185.585 9.50746 -6.95468 
46176 2 -136.868 -185.615 8.54364 -6.95686 
46178 2 -128.693 -185.712 5.69238 -6.95371 
46181 2 -125.968 -185.744 4.74209 -6.95282 
46182 2 -126.022 -185.65 7.60681 -6.95282 
46185 2 -123.297 -185.682 6.65659 -6.952 
46186 2 -123.351 -185.588 9.52131 -6.952 
46188 2 -128.747 -185.618 8.5571 -6.95371 
46190 2 -120.572 -185.714 5.70643 -6.95126 
46193 2 -117.847 -185.747 4.75633 -6.95058 
46194 2 -117.901 -185.653 7.62106 -6.95058 
46197 2 -115.176 -185.685 6.67103 -6.94997 
46198 2 -115.23 -185.591 9.53575 -6.94997 
46200 2 -120.626 -185.62 8.57115 -6.95126 
46202 2 -112.451 -185.717 5.72107 -6.94941 
46205 2 -109.726 -185.75 4.77117 -6.94891 
46206 2 -109.78 -185.656 7.63589 -6.94891 
46209 2 -107.055 -185.688 6.68606 -6.94844 
46210 2 -107.109 -185.594 9.55078 -6.94844 
46212 2 -112.505 -185.623 8.58579 -6.94941 
46214 2 -104.33 -185.72 5.73628 -6.94802 
46217 2 -101.605 -185.753 4.78657 -6.94763 
46218 2 -101.659 -185.659 7.6513 -6.94763 
46221 2 -98.9342 -185.691 6.70165 -6.94726 
46222 2 -98.9885 -185.597 9.56638 -6.94726 
46224 2 -104.384 -185.626 8.60101 -6.94802 
46226 2 -96.2092 -185.723 5.75207 -6.94691 
46229 2 -93.4842 -185.756 4.80254 -6.94657 
46230 2 -93.5385 -185.662 7.66727 -6.94657 
46233 2 -90.8134 -185.694 6.7178 -6.94623 
46234 2 -90.8677 -185.6 9.58253 -6.94623 
46236 2 -96.2635 -185.629 8.61679 -6.94692 
46238 2 -88.0884 -185.727 5.76839 -6.94588 
46241 2 -85.3633 -185.759 4.81904 -6.94551 
46242 2 -85.4176 -185.665 7.68377 -6.94551 
46245 2 -82.6926 -185.697 6.73447 -6.9451 
46246 2 -82.7469 -185.603 9.5992 -6.9451 
46248 2 -88.1427 -185.633 8.63312 -6.94588 
46250 2 -79.9675 -185.73 5.78523 -6.94466 
46253 2 -77.2425 -185.762 4.83604 -6.94415 
46254 2 -77.2968 -185.668 7.70077 -6.94415 
46257 2 -74.5717 -185.701 6.75163 -6.94359 
46258 2 -74.626 -185.607 9.61635 -6.94358 
46260 2 -80.0218 -185.636 8.64996 -6.94466 
46262 2 -71.8466 -185.733 5.80254 -6.94296 
46265 2 -69.1215 -185.765 4.8535 -6.94228 
46266 2 -69.1758 -185.671 7.71823 -6.94228 
46269 2 -66.4507 -185.704 6.76923 -6.94154 
46270 2 -66.505 -185.61 9.63395 -6.94154 
46272 2 -71.9009 -185.639 8.66727 -6.94296 
46274 2 -63.7256 -185.736 5.82028 -6.94075 
46277 2 -61.0005 -185.769 4.87137 -6.93992 
46278 2 -61.0548 -185.674 7.73609 -6.93992 
46281 2 -58.3297 -185.707 6.78723 -6.93905 
46282 2 -58.384 -185.613 9.65195 -6.93905 
46284 2 -63.7799 -185.642 8.685 -6.94075 
46286 2 -55.6045 -185.739 5.83839 -6.93814 
46289 2 -52.8793 -185.771 4.8896 -6.9372 
46290 2 -52.9336 -185.677 7.75432 -6.9372 
46293 2 -50.2085 -185.71 6.80556 -6.93624 
46294 2 -50.2628 -185.615 9.67029 -6.93624 
46296 2 -55.6588 -185.645 8.70312 -6.93814 
46298 2 -47.4833 -185.742 5.85683 -6.93527 
46301 2 -44.758 -185.774 4.90813 -6.9343 
46302 2 -44.8123 -185.68 7.77286 -6.9343 
46305 2 -42.0871 -185.712 6.82419 -6.93334 
46306 2 -42.1414 -185.618 9.68891 -6.93333 
46308 2 -47.5376 -185.648 8.72156 -6.93527 
46310 2 -39.3619 -185.744 5.87554 -6.93239 
46313 2 -36.6366 -185.776 4.92692 -6.93149 
46314 2 -36.6909 -185.682 7.79165 -6.93149 
46317 2 -33.9656 -185.714 6.84305 -6.93065 
46318 2 -34.0199 -185.62 9.70777 -6.93065 
46320 2 -39.4162 -185.65 8.74027 -6.93239 
46322 2 -31.2403 -185.746 5.89447 -6.9299 
46325 2 -28.515 -185.778 4.94591 -6.92925 
46326 2 -28.5694 -185.684 7.81063 -6.92925 
46329 2 -25.844 -185.716 6.86209 -6.92871 
46330 2 -25.8983 -185.621 9.72682 -6.92871 
46332 2 -31.2947 -185.652 8.75919 -6.9299 
46334 2 -23.1187 -185.747 5.91356 -6.92829 
46337 2 -20.3934 -185.779 4.96505 -6.92799 
46338 2 -20.4477 -185.685 7.82978 -6.92799 
46341 2 -17.7223 -185.716 6.88127 -6.92782 
46342 2 -17.7766 -185.622 9.746 -6.92782 
46344 2 -23.173 -185.653 8.77829 -6.92829 
46346 2 -14.997 -185.748 5.93278 -6.92777 
46349 2 -12.2716 -185.78 4.9843 -6.92785 
46350 2 -12.3259 -185.685 7.84902 -6.92785 
46353 2 -9.60053 -185.717 6.90054 -6.92805 
46354 2 -9.65484 -185.623 9.76527 -6.92805 
46356 2 -15.0513 -185.654 8.7975 -6.92777 
46358 2 -6.87515 -185.748 5.95207 -6.92838 
46361 2 -4.14977 -185.78 5.0036 -6.92883 
46362 2 -4.20408 -185.685 7.86833 -6.92883 
46365 2 -1.47869 -185.717 6.91986 -6.9294 
46366 2 -1.533 -185.623 9.78459 -6.9294 
46368 2 -6.92946 -185.654 8.8168 -6.92838 
46370 2 1.2467 -185.748 5.9714 -6.93009 
46373 2 3.97209 -185.779 5.02293 -6.93088 
46374 2 3.91778 -185.685 7.88766 -6.93088 
46377 2 6.64316 -185.716 6.93919 -6.93179 
46378 2 6.58885 -185.622 9.80391 -6.93179 
46380 2 1.19239 -185.654 8.83612 -6.93009 
46382 2 9.36855 -185.747 5.99072 -6.93278 
46385 2 12.0939 -185.778 5.04224 -6.93383 
46386 2 12.0396 -185.684 7.90696 -6.93383 
46389 2 14.765 -185.714 6.95848 -6.93492 
46390 2 14.7107 -185.62 9.8232 -6.93492 
46392 2 9.31424 -185.653 8.85544 -6.93278 
46394 2 17.4904 -185.745 6.00999 -6.93604 
46397 2 20.2157 -185.776 5.06149 -6.93717 
46398 2 20.1614 -185.682 7.92621 -6.93717 
46401 2 22.8868 -185.712 6.9777 -6.9383 
46402 2 22.8324 -185.618 9.84242 -6.9383 
46404 2 17.436 -185.651 8.87471 -6.93604 
46406 2 25.6121 -185.743 6.02917 -6.93942 
46409 2 28.3374 -185.773 5.08063 -6.94053 
46410 2 28.2831 -185.679 7.94535 -6.94053 
46413 2 31.0084 -185.71 6.99679 -6.94161 
46414 2 30.9541 -185.616 9.86152 -6.94161 
46416 2 25.5578 -185.649 8.89389 -6.93943 
46418 2 33.7337 -185.74 6.04821 -6.94266 
46421 2 36.459 -185.77 5.09961 -6.94366 
46422 2 36.4047 -185.676 7.96434 -6.94366 
46425 2 39.13 -185.707 7.01572 -6.94462 
46426 2 39.0757 -185.613 9.88044 -6.94462 
46428 2 33.6794 -185.646 8.91294 -6.94266 
46430 2 41.8553 -185.737 6.06707 -6.94554 
46433 2 44.5805 -185.767 5.1184 -6.9464 
46434 2 44.5262 -185.673 7.98313 -6.9464 
46437 2 47.2514 -185.703 7.03443 -6.94721 
46438 2 47.1971 -185.609 9.89915 -6.9472 
46440 2 41.801 -185.643 8.9318 -6.94554 
46442 2 49.9767 -185.733 6.0857 -6.94795 
46445 2 52.7019 -185.763 5.13694 -6.94865 
46446 2 52.6476 -185.669 8.00166 -6.94865 
46449 2 55.3727 -185.699 7.05287 -6.94929 
46450 2 55.3184 -185.605 9.91759 -6.94929 
46452 2 49.9223 -185.639 8.95042 -6.94796 
46454 2 58.0979 -185.729 6.10404 -6.9499 
46457 2 60.8231 -185.759 5.15517 -6.95049 
46458 2 60.7688 -185.665 8.01989 -6.95049 
46461 2 63.4939 -185.695 7.07098 -6.95107 
46462 2 63.4396 -185.601 9.93571 -6.95107 
46464 2 58.0436 -185.635 8.96876 -6.9499 
46466 2 66.2191 -185.725 6.12203 -6.95166 
46469 2 68.9442 -185.755 5.17303 -6.95226 
46470 2 68.8899 -185.661 8.03776 -6.95226 
46473 2 71.615 -185.691 7.08872 -6.9529 
46474 2 71.5607 -185.597 9.95344 -6.9529 
46476 2 66.1648 -185.631 8.98675 -6.95166 
46478 2 74.3401 -185.721 6.13963 -6.95357 
46481 2 77.0652 -185.751 5.19049 -6.9543 
46482 2 77.0109 -185.657 8.05522 -6.9543 
46485 2 79.736 -185.687 7.10603 -6.9551 
46486 2 79.6817 -185.592 9.97075 -6.9551 
46488 2 74.2858 -185.627 9.00436 -6.95357 
46490 2 82.4611 -185.716 6.15679 -6.95596 
46493 2 85.1861 -185.746 5.20749 -6.95691 
46494 2 85.1318 -185.652 8.07222 -6.95691 
46497 2 87.8569 -185.682 7.12287 -6.95795 
46498 2 87.8026 -185.588 9.98759 -6.95795 
46500 2 82.4067 -185.622 9.02151 -6.95596 
46502 2 90.582 -185.712 6.17346 -6.95909 
46505 2 93.307 -185.742 5.22399 -6.96034 
46506 2 93.2527 -185.648 8.08872 -6.96034 
46509 2 95.9778 -185.678 7.13919 -6.96169 
46510 2 95.9235 -185.584 10.0039 -6.96169 
46512 2 90.5276 -185.618 9.03818 -6.95909 
46514 2 98.7028 -185.708 6.18961 -6.96314 
46517 2 101.428 -185.738 5.23996 -6.96468 
46518 2 101.374 -185.644 8.10469 -6.96468 
46521 2 104.099 -185.674 7.15498 -6.96632 
46522 2 104.044 -185.58 10.0197 -6.96632 
46524 2 98.6485 -185.614 9.05433 -6.96314 
46526 2 106.824 -185.704 6.20521 -6.96803 
46529 2 109.549 -185.734 5.25537 -6.96979 
46530 2 109.494 -185.64 8.12009 -6.96979 
46533 2 112.22 -185.67 7.17019 -6.9716 
46534 2 112.165 -185.576 10.0349 -6.9716 
46536 2 106.769 -185.61 9.06993 -6.96803 
46538 2 114.945 -185.7 6.22023 -6.97344 
46541 2 117.67 -185.73 5.2702 -6.97531 
46542 2 117.615 -185.636 8.13493 -6.97531 
46545 2 120.34 -185.666 7.18483 -6.9772 
46546 2 120.286 -185.572 10.0496 -6.9772 
46548 2 114.89 -185.606 9.08495 -6.97344 
46550 2 123.066 -185.696 6.23467 -6.9791 
46553 2 125.791 -185.726 5.28445 -6.98101 
46554 2 125.736 -185.632 8.14917 -6.98101 
46557 2 128.462 -185.662 7.19888 -6.98291 
46558 2 128.407 -185.568 10.0636 -6.98291 
46560 2 123.011 -185.602 9.0994 -6.9791 
46562 2 131.187 -185.692 6.24852 -6.98481 
46565 2 133.912 -185.723 5.2981 -6.98669 
46566 2 133.857 -185.629 8.16283 -6.98669 
46569 2 136.583 -185.659 7.21234 -6.98855 
46570 2 136.528 -185.565 10.0771 -6.98855 
46572 2 131.132 -185.598 9.11325 -6.98481 
46574 2 139.308 -185.689 6.26179 -6.99038 
46577 2 142.033 -185.72 5.31118 -6.99218 
46578 2 141.979 -185.625 8.1759 -6.99218 
46581 2 144.704 -185.656 7.22522 -6.99394 
46582 2 144.65 -185.562 10.0899 -6.99394 
46584 2 139.253 -185.595 9.12652 -6.99038 
46586 2 147.429 -185.686 6.27448 -6.99567 
46596 2 147.375 -185.592 9.13921 -6.99567 
1 2 -189.691 -183.176 11.3314 -7.08735 
3 2 -195.088 -183.207 10.3701 -6.85531 
4 2 -194.925 -183.489 1.77596 -6.85531 
7 2 -192.2 -183.521 0.824226 -7.08657 
8 2 -192.254 -183.427 3.68895 -7.08657 
11 2 -189.528 -183.458 2.73727 -7.08735 
13 2 -181.57 -183.177 11.3414 -7.08736 
15 2 -186.966 -183.208 10.3798 -7.08735 
16 2 -186.803 -183.49 1.78563 -7.08735 
19 2 -184.078 -183.522 0.834048 -7.08735 
20 2 -184.132 -183.428 3.69877 -7.08735 
23 2 -181.407 -183.46 2.74724 -7.08736 
25 2 -173.448 -183.179 11.3519 -7.08736 
27 2 -178.844 -183.209 10.3899 -7.08736 
28 2 -178.681 -183.492 1.79577 -7.08736 
31 2 -175.956 -183.523 0.844346 -7.08736 
32 2 -176.01 -183.429 3.70907 -7.08736 
35 2 -173.285 -183.461 2.7577 -7.08736 
37 2 -165.326 -183.18 11.3628 -7.08737 
39 2 -170.722 -183.211 10.4006 -7.08736 
40 2 -170.559 -183.493 1.8064 -7.08736 
43 2 -167.834 -183.525 0.855144 -7.08736 
44 2 -167.888 -183.431 3.71987 -7.08736 
47 2 -165.163 -183.463 2.76867 -7.08737 
49 2 -157.205 -183.182 11.3743 -7.08737 
51 2 -162.601 -183.212 10.4117 -7.08737 
52 2 -162.438 -183.495 1.81754 -7.08737 
55 2 -159.713 -183.527 0.866466 -7.08737 
56 2 -159.767 -183.432 3.73119 -7.08737 
59 2 -157.042 -183.464 2.78018 -7.08737 
61 2 -149.083 -183.184 11.3864 -7.08738 
63 2 -154.479 -183.214 10.4234 -7.08737 
64 2 -154.316 -183.496 1.82922 -7.08737 
67 2 -151.591 -183.528 0.878334 -7.08738 
68 2 -151.645 -183.434 3.74306 -7.08738 
71 2 -148.92 -183.466 2.79223 -7.08738 
73 2 -140.962 -183.186 11.399 -7.08738 
75 2 -146.358 -183.216 10.4356 -7.08738 
76 2 -146.195 -183.498 1.84147 -7.08738 
79 2 -143.47 -183.531 0.890767 -7.08738 
80 2 -143.524 -183.436 3.75549 -7.08738 
83 2 -140.799 -183.469 2.80486 -7.08738 
85 2 -132.841 -183.189 11.4122 -7.08739 
87 2 -138.237 -183.218 10.4485 -7.08738 
88 2 -138.074 -183.501 1.85429 -7.08738 
91 2 -135.349 -183.533 0.903782 -7.08739 
92 2 -135.403 -183.439 3.76851 -7.08739 
95 2 -132.678 -183.471 2.81807 -7.08739 
97 2 -124.72 -183.191 11.4261 -7.08739 
99 2 -130.116 -183.221 10.4619 -7.08739 
100 2 -129.953 -183.503 1.8677 -7.08739 
103 2 -127.228 -183.535 0.917392 -7.08739 
104 2 -127.282 -183.441 3.78212 -7.08739 
107 2 -124.557 -183.473 2.83188 -7.08739 
109 2 -116.599 -183.194 11.4405 -7.08739 
111 2 -121.995 -183.224 10.4759 -7.08739 
112 2 -121.832 -183.506 1.88171 -7.08739 
115 2 -119.107 -183.538 0.931605 -7.08739 
116 2 -119.161 -183.444 3.79633 -7.08739 
119 2 -116.436 -183.476 2.84629 -7.08739 
121 2 -108.478 -183.197 11.4555 -7.08739 
123 2 -113.874 -183.226 10.4905 -7.08739 
124 2 -113.711 -183.509 1.89632 -7.08739 
127 2 -110.986 -183.541 0.94642 -7.08739 
128 2 -111.04 -183.447 3.81114 -7.08739 
131 2 -108.315 -183.479 2.86131 -7.08739 
133 2 -100.14 -183.576 0.0121887 -7.08739 
135 2 -105.753 -183.229 10.5057 -7.08739 
136 2 -105.59 -183.512 1.91154 -7.08739 
139 2 -102.865 -183.544 0.96183 -7.08739 
140 2 -102.919 -183.45 3.82655 -7.08739 
143 2 -100.194 -183.482 2.87691 -7.08739 
145 2 -92.0193 -183.58 0.0283681 -7.08739 
147 2 -97.6323 -183.233 10.5215 -7.08739 
148 2 -97.4694 -183.515 1.92734 -7.08739 
151 2 -94.7443 -183.547 0.977821 -7.08739 
152 2 -94.7986 -183.453 3.84255 -7.08739 
155 2 -92.0736 -183.486 2.89309 -7.08739 
157 2 -83.8985 -183.583 0.0450938 -7.08738 
159 2 -89.5115 -183.236 10.5379 -7.08739 
160 2 -89.3486 -183.518 1.9437 -7.08739 
163 2 -86.6235 -183.55 0.994368 -7.08739 
164 2 -86.6779 -183.456 3.85909 -7.08739 
167 2 -83.9528 -183.489 2.90982 -7.08738 
169 2 -75.7777 -183.586 0.0623301 -7.08738 
171 2 -81.3907 -183.239 10.5548 -7.08738 
172 2 -81.2278 -183.521 1.9606 -7.08738 
175 2 -78.5027 -183.554 1.01144 -7.08738 
176 2 -78.557 -183.46 3.87616 -7.08738 
179 2 -75.832 -183.492 2.92705 -7.08738 
181 2 -67.6568 -183.589 0.0800341 -7.08737 
183 2 -73.2698 -183.242 10.5722 -7.08737 
184 2 -73.1069 -183.525 1.978 -7.08737 
187 2 -70.3818 -183.557 1.02899 -7.08737 
188 2 -70.4361 -183.463 3.89372 -7.08737 
191 2 -67.7111 -183.495 2.94476 -7.08737 
193 2 -59.5357 -183.592 0.0981564 -7.08736 
195 2 -65.1489 -183.245 10.59 -7.08736 
196 2 -64.986 -183.528 1.99585 -7.08736 
199 2 -62.2609 -183.56 1.04698 -7.08736 
200 2 -62.3152 -183.466 3.91171 -7.08736 
203 2 -59.59 -183.498 2.96288 -7.08736 
205 2 -51.4146 -183.595 0.116643 -7.08734 
207 2 -57.0278 -183.248 10.6083 -7.08735 
208 2 -56.8649 -183.531 2.0141 -7.08735 
211 2 -54.1398 -183.563 1.06535 -7.08735 
212 2 -54.1941 -183.469 3.93008 -7.08735 
215 2 -51.4689 -183.501 2.98137 -7.08734 
217 2 -43.2933 -183.598 0.13544 -7.08733 
219 2 -48.9066 -183.251 10.6269 -7.08734 
220 2 -48.7437 -183.533 2.03269 -7.08734 
223 2 -46.0185 -183.566 1.08405 -7.08733 
224 2 -46.0728 -183.472 3.94878 -7.08733 
227 2 -43.3476 -183.504 3.00016 -7.08733 
229 2 -35.1719 -183.6 0.15449 -7.08731 
231 2 -40.7853 -183.254 10.6458 -7.08733 
232 2 -40.6224 -183.536 2.05158 -7.08733 
235 2 -37.8971 -183.568 1.10302 -7.08732 
236 2 -37.9514 -183.474 3.96775 -7.08732 
239 2 -35.2262 -183.506 3.01921 -7.08731 
241 2 -27.0503 -183.602 0.173741 -7.0873 
243 2 -32.6638 -183.256 10.6649 -7.08731 
244 2 -32.5009 -183.538 2.0707 -7.08731 
247 2 -29.7756 -183.57 1.12221 -7.0873 
248 2 -29.8299 -183.476 3.98694 -7.0873 
251 2 -27.1046 -183.508 3.03847 -7.0873 
253 2 -18.9286 -183.603 0.193141 -7.08728 
255 2 -24.5422 -183.257 10.6842 -7.08729 
256 2 -24.3793 -183.539 2.09001 -7.08729 
259 2 -21.654 -183.571 1.14157 -7.08729 
260 2 -21.7083 -183.477 4.00629 -7.08729 
263 2 -18.983 -183.509 3.05787 -7.08728 
265 2 -10.8069 -183.603 0.212643 -7.08726 
267 2 -16.4205 -183.258 10.7036 -7.08728 
268 2 -16.2576 -183.54 2.10945 -7.08728 
271 2 -13.5323 -183.572 1.16104 -7.08727 
272 2 -13.5866 -183.478 4.02577 -7.08727 
275 2 -10.8612 -183.509 3.07737 -7.08726 
277 2 -2.68507 -183.603 0.232202 -7.08725 
279 2 -8.29876 -183.258 10.7231 -7.08726 
280 2 -8.13583 -183.541 2.12898 -7.08726 
283 2 -5.41045 -183.572 1.18059 -7.08725 
284 2 -5.46476 -183.478 4.04531 -7.08725 
287 2 -2.73938 -183.509 3.09693 -7.08725 
289 2 5.43677 -183.602 0.251775 -7.08723 
291 2 -0.17693 -183.258 10.7427 -7.08724 
292 2 -0.0139988 -183.54 2.14854 -7.08724 
295 2 2.71138 -183.571 1.20016 -7.08723 
296 2 2.65707 -183.477 4.06488 -7.08723 
299 2 5.38246 -183.508 3.1165 -7.08723 
301 2 13.5586 -183.601 0.27132 -7.08721 
303 2 7.9449 -183.257 10.7623 -7.08722 
304 2 8.10783 -183.539 2.16811 -7.08722 
307 2 10.8332 -183.57 1.21972 -7.08722 
308 2 10.7789 -183.476 4.08444 -7.08722 
311 2 13.5043 -183.507 3.13604 -7.08721 
313 2 21.6803 -183.599 0.290793 -7.08719 
315 2 16.0667 -183.255 10.7818 -7.0872 
316 2 16.2296 -183.538 2.18764 -7.0872 
319 2 18.955 -183.568 1.23922 -7.0872 
320 2 18.9007 -183.474 4.10395 -7.0872 
323 2 21.626 -183.505 3.15552 -7.08719 
325 2 29.802 -183.596 0.310149 -7.08717 
327 2 24.1884 -183.253 10.8013 -7.08719 
328 2 24.3514 -183.535 2.20708 -7.08719 
331 2 27.0767 -183.566 1.25862 -7.08718 
332 2 27.0224 -183.472 4.12335 -7.08718 
335 2 29.7477 -183.502 3.17487 -7.08717 
337 2 37.9236 -183.593 0.329339 -7.08716 
339 2 32.3101 -183.251 10.8206 -7.08717 
340 2 32.473 -183.533 2.22638 -7.08717 
343 2 35.1983 -183.563 1.27787 -7.08716 
344 2 35.144 -183.469 4.1426 -7.08716 
347 2 37.8693 -183.499 3.19406 -7.08716 
349 2 46.045 -183.59 0.348311 -7.08714 
351 2 40.4316 -183.247 10.8397 -7.08715 
352 2 40.5945 -183.529 2.24551 -7.08715 
355 2 43.3198 -183.56 1.29692 -7.08715 
356 2 43.2655 -183.466 4.16165 -7.08715 
359 2 45.9907 -183.496 3.21304 -7.08714 
361 2 54.1663 -183.586 0.36701 -7.08712 
363 2 48.553 -183.244 10.8586 -7.08713 
364 2 48.7159 -183.526 2.26439 -7.08713 
367 2 51.4411 -183.556 1.31572 -7.08713 
368 2 51.3868 -183.462 4.18044 -7.08713 
371 2 54.112 -183.492 3.23173 -7.08712 
373 2 62.2875 -183.582 0.385382 -7.08711 
375 2 56.6742 -183.24 10.8772 -7.08712 
376 2 56.8372 -183.522 2.28299 -7.08712 
379 2 59.5623 -183.552 1.33421 -7.08711 
380 2 59.508 -183.458 4.19893 -7.08711 
383 2 62.2331 -183.488 3.25011 -7.08711 
385 2 70.4085 -183.577 0.40337 -7.08709 
387 2 64.7953 -183.235 10.8954 -7.0871 
388 2 64.9583 -183.518 2.30124 -7.0871 
391 2 67.6834 -183.548 1.35233 -7.0871 
392 2 67.6291 -183.454 4.21705 -7.0871 
395 2 70.3542 -183.483 3.26809 -7.08709 
397 2 78.5295 -183.573 0.420924 -7.08708 
399 2 72.9164 -183.231 10.9133 -7.08709 
400 2 73.0793 -183.513 2.31909 -7.08709 
403 2 75.8044 -183.543 1.37003 -7.08708 
404 2 75.7501 -183.449 4.23476 -7.08708 