ITEM: TIMESTEP
0
ITEM: NUMBER OF ATOMS
32640
ITEM: BOX BOUNDS pp fm fm
0.0000000000000 9.9204448629229
-116.2039376143298 114.5514302417878
-119.2518351943208 119.2518351943208
ITEM: ATOMS id type x y z c_peatom
1 2 2.4864819357132 -114.0270399180500 -109.1427702113000 -3.2106243358721
2 2 2.4867894663506 -111.1575140870100 -109.1371526131300 -3.3617480170274
3 2 0.0065254458937 -112.5922821094900 -109.1399758462200 -3.3217140952962
4 2 0.8337251524923 -111.1483232300800 -113.8092868210300 -3.3617517927406
5 2 0.0067657156275 -115.4478529643300 -116.1537199443600 -2.7920188857991
6 2 0.8334436246592 -114.0176699934400 -113.8148507242300 -3.2106128918378
7 2 7.4470118978121 -111.1575140870100 -109.1371526131300 -3.3617480170274
8 2 7.4467043671747 -114.0270399180500 -109.1427702113000 -3.2106243358721
9 2 4.9664366467626 -115.4617870118800 -109.1455357410700 -2.8166754557838
10 2 4.9667478773552 -112.5922821094900 -109.1399758462200 -3.3217140952963
11 2 5.7936660561206 -114.0176699934400 -113.8148507242300 -3.2106128918378
12 2 5.7939475839538 -111.1483232300800 -113.8092868210300 -3.3617517927406
13 2 3.3136967099851 -112.5830004865700 -113.8120820070100 -3.3216895661397
14 2 4.1403757189889 -111.1528329863400 -111.4731846437600 -3.3617499139301
15 2 3.3134108959615 -115.4523312360900 -113.8175929243200 -2.8166693103111
16 2 4.1400812253168 -114.0222694215200 -111.4787767993800 -3.2106186225826
17 2 1.6598197922760 -115.4569737081100 -111.4815313721400 -2.8166722533872
18 2 1.6601182931531 -112.5875556779400 -111.4759945535800 -3.3217018840939
19 2 8.2736333274230 -115.4523312360900 -113.8175929243200 -2.8166693103111
20 2 8.2739191414465 -112.5830004865700 -113.8120820070100 -3.3216895661397
21 2 9.1003036567783 -114.0222694215200 -111.4787767993800 -3.2106186225826
22 2 9.1005981504504 -111.1528329863400 -111.4731846437600 -3.3617499139301
23 2 6.6203407246146 -112.5875556779400 -111.4759945535800 -3.3217018840939
24 2 6.6200422237374 -115.4569737081100 -111.4815313721400 -2.8166722533872
25 2 2.4870887228311 -108.2879495293300 -109.1314195390900 -3.3599806426470
26 2 2.4873784882146 -105.4183507624800 -109.1255712608000 -3.3599804253624
27 2 0.0071236545582 -106.8531541232500 -109.1285097651000 -3.3599805330325
28 2 0.8342588378323 -105.4095477990300 -113.7978433100100 -3.3599817143567
29 2 0.0073027941350 -109.7093399365600 -116.1426540542000 -3.3344124146588
30 2 0.8339972737171 -108.2789476400600 -113.8036173689800 -3.3599818952753
31 2 7.4476009196761 -105.4183507624800 -109.1255712608000 -3.3599804253624
32 2 7.4473111542925 -108.2879495293300 -109.1314195390900 -3.3599806426470
33 2 4.9670514192382 -109.7227363764600 -109.1343005043700 -3.3599807540966
34 2 4.9673460860196 -106.8531541232500 -109.1285097651000 -3.3599805330325
35 2 5.7942197051785 -108.2789476400600 -113.8036173689800 -3.3599818952753
36 2 5.7944812692937 -105.4095477990300 -113.7978433100100 -3.3599817143567
37 2 3.3142406647260 -106.8442504502700 -113.8007433375100 -3.3599818038571
38 2 4.1409369104351 -105.4138637630900 -111.4616694809900 -3.3599810833296
39 2 3.3139736755363 -109.7136387611800 -113.8064652408600 -3.3599819885207
40 2 4.1406613425500 -108.2833629146100 -111.4674819983700 -3.3599812816520
41 2 1.6604084966823 -109.7181018795200 -111.4703471046400 -3.3599813836195
42 2 1.6606892438108 -106.8486166734600 -111.4645894163300 -3.3599811815222
43 2 8.2741961069978 -109.7136387611800 -113.8064652408600 -3.3599819885207
44 2 8.2744630961875 -106.8442504502700 -113.8007433375100 -3.3599818038571
45 2 9.1008837740115 -108.2833629146100 -111.4674819983700 -3.3599812816520
46 2 9.1011593418965 -105.4138637630900 -111.4616694809900 -3.3599810833296
47 2 6.6209116752723 -106.8486166734600 -111.4645894163300 -3.3599811815222
48 2 6.6206309281438 -109.7181018795200 -111.4703471046400 -3.3599813836195
49 2 2.4876574876227 -102.5487227301100 -109.1196085403100 -3.3599802162967
50 2 2.4879243938233 -99.6790708166440 -109.1135326970100 -3.3599800163405
51 2 0.0076813214504 -101.1138994044200 -109.1165846528400 -3.3599801151240
52 2 0.8347454944840 -99.6706955666240 -113.7859877197500 -3.3599813773531
53 2 0.0077980871101 -103.9707390788300 -116.1311882311500 -3.3344260564819
54 2 0.8345086533069 -102.5401286609600 -113.7919660898700 -3.3599815414736
55 2 7.4481468252847 -99.6790708166440 -109.1135326970100 -3.3599800163405
56 2 7.4478799190842 -102.5487227301100 -109.1196085403100 -3.3599802162967
57 2 4.9676306311989 -103.9835400784400 -109.1226041372500 -3.3599803197467
58 2 4.9679037529119 -101.1138994044200 -109.1165846528400 -3.3599801151240
59 2 5.7947310847683 -102.5401286609600 -113.7919660898700 -3.3599815414737
60 2 5.7949679259454 -99.6706955666240 -113.7859877197500 -3.3599813773531
61 2 3.3147399891263 -101.1054135092400 -113.7889893989900 -3.3599814582728
62 2 4.1414528966828 -99.6747984699690 -111.4497198576100 -3.3599807119432
63 2 3.3144965057764 -103.9748403174700 -113.7949174834000 -3.3599816268652
64 2 4.1412011877713 -102.5443404907000 -111.4557482077800 -3.3599808931581
65 2 1.6609593236362 -103.9791048160300 -111.4587223479100 -3.3599809871747
66 2 1.6612174788880 -101.1095714716900 -111.4527472885400 -3.3599808013806
67 2 8.2747189372379 -103.9748403174700 -113.7949174834000 -3.3599816268652
68 2 8.2749624205878 -101.1054135092400 -113.7889893989900 -3.3599814582729
69 2 9.1014236192328 -102.5443404907000 -111.4557482077800 -3.3599808931581
70 2 9.1016753281443 -99.6747984699690 -111.4497198576100 -3.3599807119432
71 2 6.6214399103495 -101.1095714716900 -111.4527472885400 -3.3599808013806
72 2 6.6211817550976 -103.9791048160300 -111.4587223479100 -3.3599809871747
73 2 2.4881778346785 -96.8094008593400 -109.1073456803800 -3.3599798263890
74 2 2.4884164027045 -93.9397191569970 -109.1010501490500 -3.3599796473304
75 2 0.0081878511041 -95.3745610644350 -109.1042112829000 -3.3599797354431
76 2 0.8351752344796 -93.9318108360940 -113.7737388051000 -3.3599810782570
77 2 0.0082424527761 -98.2320898567820 -116.1193366632000 -3.3344433834202
78 2 0.8349681102247 -96.8012542491390 -113.7799108427200 -3.3599812227140
79 2 7.4486388341660 -93.9397191569970 -109.1010501490500 -3.3599796473304
80 2 7.4484002661400 -96.8094008593400 -109.1073456803800 -3.3599798263890
81 2 4.9681641004167 -98.2442377106910 -109.1104529367800 -3.3599799200584
82 2 4.9684102825656 -95.3745610644350 -109.1042112829000 -3.3599797354432
83 2 5.7951905416861 -96.8012542491390 -113.7799108427200 -3.3599812227140
84 2 5.7953976659411 -93.9318108360940 -113.7737388051000 -3.3599810782570
85 2 3.3151849038975 -95.3665324062020 -113.7768364803300 -3.3599811491700
86 2 4.1419133334101 -93.9356817898070 -111.4373518788500 -3.3599803795845
87 2 3.3149698751811 -98.2359755620440 -113.7829614028000 -3.3599812988040
88 2 4.1416907244025 -96.8052434956080 -111.4435867417100 -3.3599805404885
89 2 1.6614624131094 -98.2400222231590 -111.4466662242000 -3.3599806249459
90 2 1.6616927997543 -95.3704630784910 -111.4404818101700 -3.3599804586691
91 2 8.2751923066425 -98.2359755620440 -113.7829614028000 -3.3599812988040
92 2 8.2754073353590 -95.3665324062020 -113.7768364803300 -3.3599811491700
93 2 9.1019131558639 -96.8052434956080 -111.4435867417100 -3.3599805404885
94 2 9.1021357648715 -93.9356817898070 -111.4373518788500 -3.3599803795845
95 2 6.6219152312157 -95.3704630784910 -111.4404818101700 -3.3599804586691
96 2 6.6216848445708 -98.2400222231590 -111.4466662242000 -3.3599806249459
97 2 2.4886386669956 -91.0700324746490 -109.0946495560700 -3.3599794800338
98 2 2.4888431877631 -88.2003480432700 -109.0881482402900 -3.3599793253339
99 2 0.0086320194679 -89.6351895075770 -109.0914111801200 -3.3599794010589
100 2 0.8355379481436 -88.1929441887170 -113.7611266099600 -3.3599808225315
101 2 0.0086264201820 -92.4934375082350 -116.1071231225200 -3.3344647569055
102 2 0.8353655989699 -91.0623718474900 -113.7674757324200 -3.3599809446531
103 2 7.4490656192246 -88.2003480432700 -109.0881482402900 -3.3599793253339
104 2 7.4488610984570 -91.0700324746490 -109.0946495560700 -3.3599794800339
105 2 4.9686408785155 -92.5048759972670 -109.0978627359600 -3.3599795621588
106 2 4.9688544509293 -89.6351895075770 -109.0914111801200 -3.3599794010589
107 2 5.7955880304314 -91.0623718474900 -113.7674757324200 -3.3599809446531
108 2 5.7957603796051 -88.1929441887170 -113.7611266099600 -3.3599808225315
109 2 3.3155653187190 -89.6276561555410 -113.7643115799600 -3.3599808821197
110 2 4.1423074981644 -88.1965652115930 -111.4245930142700 -3.3599800924508
111 2 3.3153838063879 -92.4970903660630 -113.7706183576900 -3.3599810100579
112 2 4.1421193738111 -91.0661200033210 -111.4310190760100 -3.3599802299965
113 2 1.6619072934196 -92.5009004743050 -111.4341974488900 -3.3599803033295
114 2 1.6621045434236 -89.6313412745310 -111.4278173733400 -3.3599801596748
115 2 8.2756062378493 -92.4970903660630 -113.7706183576900 -3.3599810100579
116 2 8.2757877501804 -89.6276561555410 -113.7643115799600 -3.3599808821197
117 2 9.1023418052726 -91.0661200033210 -111.4310190760100 -3.3599802299965
118 2 9.1025299296259 -88.1965652115930 -111.4245930142700 -3.3599800924508
119 2 6.6223269748851 -89.6313412745310 -111.4278173733400 -3.3599801596749
120 2 6.6221297248811 -92.5009004743050 -111.4341974488900 -3.3599803033295
121 2 2.4890285337210 -85.3306735535160 -109.0815515237400 -3.3599791840151
122 2 2.4891933025219 -82.4610171423880 -109.0748658144100 -3.3599790567932
123 2 0.0090023604276 -83.8958425626540 -109.0782193473400 -3.3599791186005
124 2 0.8358237487217 -82.4541523255470 -113.7481949666200 -3.3599806149591
125 2 0.0089405401552 -86.7548330082370 -116.0945831194000 -3.3344905058339
126 2 0.8356910565481 -85.3235351377370 -113.7546973673500 -3.3599807124658
127 2 7.4494157339833 -82.4610171423880 -109.0748658144100 -3.3599790567932
128 2 7.4492509651825 -85.3306735535160 -109.0815515237400 -3.3599791840151
129 2 4.9690495619101 -86.7655090573790 -109.0848614333000 -3.3599792529553
130 2 4.9692247918891 -83.8958425626540 -109.0782193473400 -3.3599791186005
131 2 5.7959134880095 -85.3235351377370 -113.7546973673500 -3.3599807124658
132 2 5.7960461801832 -82.4541523255470 -113.7481949666200 -3.3599806149591
133 2 3.3158712413115 -83.8888399617530 -113.7514548338200 -3.3599806621143
134 2 4.1426247287656 -82.4575069719530 -111.4114847587500 -3.3599798561083
135 2 3.3157281980614 -86.7582368683110 -113.7579215937900 -3.3599807659584
136 2 4.1424763789409 -85.3270249049610 -111.4180793397200 -3.3599799676205
137 2 1.6622832099278 -86.7617927636920 -111.4213467354400 -3.3599800284067
138 2 1.6624419827716 -83.8922626337830 -111.4147916992800 -3.3599799101652
139 2 8.2759506295228 -86.7582368683110 -113.7579215937900 -3.3599807659584
140 2 8.2760936727730 -83.8888399617530 -113.7514548338200 -3.3599806621143
141 2 9.1026988104023 -85.3270249049610 -111.4180793397200 -3.3599799676205
142 2 9.1028471602270 -82.4575069719530 -111.4114847587500 -3.3599798561083
143 2 6.6226644142330 -83.8922626337830 -111.4147916992800 -3.3599799101651
144 2 6.6225056413893 -86.7617927636920 -111.4213467354400 -3.3599800284067
145 2 2.4893361443994 -79.5913873716230 -109.0680987137900 -3.3599789442957
146 2 2.4894557891060 -76.7217931965300 -109.0612591280900 -3.3599788470411
147 2 0.0092877261482 -78.1565852606070 -109.0646873708800 -3.3599788937354
148 2 0.8360235697824 -76.7154975346540 -113.7350042464700 -3.3599804591890
149 2 0.0091758655855 -81.0163327421070 -116.0817662996800 -3.3345208987409
150 2 0.8359349216526 -79.5848037089540 -113.7416274928800 -3.3599805304287
151 2 7.4496782205675 -76.7217931965300 -109.0612591280900 -3.3599788470411
152 2 7.4495585758609 -79.5913873716230 -109.0680987137900 -3.3599789442957
153 2 4.9693787616493 -81.0261983760410 -109.0714919132800 -3.3599789986686
154 2 4.9695101576097 -78.1565852606070 -109.0646873708800 -3.3599788937355
155 2 5.7961573531140 -79.5848037089540 -113.7416274928800 -3.3599805304287
156 2 5.7962460012438 -76.7154975346540 -113.7350042464700 -3.3599804591890
157 2 3.3160933353546 -78.1501447909530 -113.7383222099900 -3.3599804931323
158 2 4.1428550284756 -76.7185716144830 -111.3980856006100 -3.3599796749932
159 2 3.3159933062647 -81.0194732336910 -113.7449188121700 -3.3599805710496
160 2 4.1427513235403 -79.5880196745780 -111.4048171369600 -3.3599797584296
161 2 1.6625796031458 -81.0227589637040 -111.4081595383100 -3.3599798055115
162 2 1.6626948881721 -78.1532901901330 -111.4014587356700 -3.3599797149102
163 2 8.2762157377262 -81.0194732336910 -113.7449188121700 -3.3599805710496
164 2 8.2763157668160 -78.1501447909530 -113.7383222099900 -3.3599804931323
165 2 9.1029737550018 -79.5880196745780 -111.4048171369600 -3.3599797584296
166 2 9.1030774599371 -76.7185716144830 -111.3980856006100 -3.3599796749932
167 2 6.6229173196336 -78.1532901901330 -111.4014587356700 -3.3599797149102
168 2 6.6228020346073 -81.0227589637040 -111.4081595383100 -3.3599798055115
169 2 2.4895510761400 -73.8522439239180 -109.0543573816800 -3.3599787654171
170 2 2.4896209881373 -70.9827491577420 -109.0474053309200 -3.3599786996581
171 2 0.0094780453075 -72.4174891174310 -109.0508868404000 -3.3599787305464
172 2 0.8361299234908 -70.9770466644780 -113.7216342636400 -3.3599803572287
173 2 0.0093245726672 -75.2779977881510 -116.0687390221200 -3.3345561083468
174 2 0.8360888124418 -73.8462422935750 -113.7283358350100 -3.3599804014354
175 2 7.4498434195987 -70.9827491577420 -109.0474053309200 -3.3599786996581
176 2 7.4497735076015 -73.8522439239180 -109.0543573816800 -3.3599787654171
177 2 4.9696177604148 -75.2870123534040 -109.0578153211800 -3.3599788042568
178 2 4.9697004767689 -72.4174891174310 -109.0508868404000 -3.3599787305464
179 2 5.7963112439032 -73.8462422935750 -113.7283358350100 -3.3599804014354
180 2 5.7963523549523 -70.9770466644780 -113.7216342636400 -3.3599803572288
181 2 3.3162236386454 -72.4116364795480 -113.7249883870100 -3.3599803776405
182 2 4.1429898521401 -70.9798290343390 -111.3844742061600 -3.3599795518377
183 2 3.3161703818932 -75.2808630087030 -113.7316749698300 -3.3599804286192
184 2 4.1429348269681 -73.8491716887760 -111.3913006390200 -3.3599796060827
185 2 1.6627867583722 -75.2838650686590 -111.3946990863500 -3.3599796387099
186 2 1.6628542679074 -72.4144926240050 -111.3878917994500 -3.3599795771244
187 2 8.2763928133546 -75.2808630087030 -113.7316749698300 -3.3599804286193
188 2 8.2764460701069 -72.4116364795480 -113.7249883870100 -3.3599803776405
189 2 9.1031572584296 -73.8491716887760 -111.3913006390200 -3.3599796060827
190 2 9.1032122836015 -70.9798290343390 -111.3844742061600 -3.3599795518377
191 2 6.6230766993688 -72.4144926240050 -111.3878917994500 -3.3599795771244
192 2 6.6230091898336 -75.2838650686590 -111.3946990863500 -3.3599796387099
193 2 2.4896646871485 -68.1133187311000 -109.0404164758400 -3.3599786498242
194 2 2.4896815533382 -65.2439626232620 -109.0334060666900 -3.3599786157814
195 2 0.0095652877373 -66.6786307605110 -109.0369129412700 -3.3599786308453
196 2 0.8361378090692 -65.2388694752120 -113.7081871580500 -3.3599803089394
197 2 0.0093807220670 -69.5398927010700 -116.0555869966600 -3.3345961682313
198 2 0.8361463628025 -68.1079194458470 -113.7149130209800 -3.3599803264805
199 2 7.4499039847997 -65.2439626232620 -109.0334060666900 -3.3599786157814
200 2 7.4498871186099 -68.1133187311000 -109.0404164758400 -3.3599786498242
201 2 4.9697573743160 -69.5480252806220 -109.0439145930000 -3.3599786727541
202 2 4.9697877191988 -66.6786307605110 -109.0369129412700 -3.3599786308453
203 2 5.7963687942640 -68.1079194458470 -113.7149130209800 -3.3599803264805
204 2 5.7963602405306 -65.2388694752120 -113.7081871580500 -3.3599803089394
205 2 3.3162564364179 -66.6733842531350 -113.7115496633700 -3.3599803160814
206 2 4.1430230687347 -65.2413528618090 -111.3707526492500 -3.3599794870783
207 2 3.3162524684455 -69.5424739513890 -113.7182751980200 -3.3599803401841
208 2 4.1430194207158 -68.1105529594750 -111.3776198189200 -3.3599795122363
209 2 1.6628966373378 -69.5451820881420 -111.3810495984100 -3.3599795302148
210 2 1.6629132884911 -66.6759428251930 -111.3741868166600 -3.3599794978717
211 2 8.2764748999070 -69.5424739513890 -113.7182751980200 -3.3599803401841
212 2 8.2764788678793 -66.6733842531350 -113.7115496633700 -3.3599803160814
213 2 9.1032418521773 -68.1105529594750 -111.3776198189200 -3.3599795122363
214 2 9.1032455001962 -65.2413528618090 -111.3707526492500 -3.3599794870783
215 2 6.6231357199525 -66.6759428251930 -111.3741868166600 -3.3599794978717
216 2 6.6231190687993 -69.5451820881420 -111.3810495984100 -3.3599795302148
217 2 2.4896712254241 -62.3746908605860 -109.0263912016600 -3.3599785971850
218 2 2.4896336419220 -59.5055134003900 -109.0193909112700 -3.3599785934654
219 2 0.0095446158970 -60.9400897265790 -109.0228879677900 -3.3599785935102
220 2 0.8360457316281 -59.5010362460240 -113.6947899848400 -3.3599803116032
221 2 0.0093411383433 -63.8020836855390 -116.0424177889300 -3.3346409224331
222 2 0.8361041932307 -62.3699055352210 -113.7014733568700 -3.3599803041815
223 2 7.4498560733835 -59.5055134003900 -109.0193909112700 -3.3599785934654
224 2 7.4498936568856 -62.3746908605860 -109.0263912016600 -3.3599785971850
225 2 4.9697910157281 -63.8093155733480 -109.0298980479200 -3.3599786045826
226 2 4.9697670473584 -60.9400897265790 -109.0228879677900 -3.3599785935102
227 2 5.7963266246922 -62.3699055352210 -113.7014733568700 -3.3599803041815
228 2 5.7962681630895 -59.5010362460240 -113.6947899848400 -3.3599803116032
229 2 3.3161892583272 -60.9354585300880 -113.6981266522800 -3.3599803064147
230 2 4.1429520651660 -59.5032180394900 -111.3570494059700 -3.3599794783274
231 2 3.3162353431937 -63.8043762074630 -113.7048276418000 -3.3599803049960
232 2 4.1430005884034 -62.3722381315590 -111.3638896065000 -3.3599794759727
233 2 1.6629038808457 -63.8067842421150 -111.3673194853200 -3.3599794798012
234 2 1.6628683486223 -60.9377156843790 -111.3604654091900 -3.3599794755126
235 2 8.2764577746551 -63.8043762074630 -113.7048276418000 -3.3599803049960
236 2 8.2764116897886 -60.9354585300880 -113.6981266522800 -3.3599803064147
237 2 9.1032230198649 -62.3722381315590 -111.3638896065000 -3.3599794759727
238 2 9.1031744966275 -59.5032180394900 -111.3570494059700 -3.3599794783274
239 2 6.6230907800838 -60.9377156843790 -111.3604654091900 -3.3599794755126
240 2 6.6231263123072 -63.8067842421150 -111.3673194853200 -3.3599794798012
241 2 2.4895690819893 -56.6364399971900 -109.0124262243500 -3.3599786038216
242 2 2.4894782043662 -53.7674800512310 -109.0055202096200 -3.3599786272197
243 2 0.0094156601619 -55.2019452728780 -109.0089643609500 -3.3599786139640
244 2 0.8358567514329 -53.7636145462930 -113.6815966163800 -3.3599803596665
245 2 0.0092063561743 -58.0646360642030 -116.0293629018500 -3.3346899703868
246 2 0.8359629577749 -56.6322699438740 -113.6881571306000 -3.3599803304194
247 2 7.4497006358276 -53.7674800512310 -109.0055202096200 -3.3599786272197
248 2 7.4497915134508 -56.6364399971900 -109.0124262243500 -3.3599786038216
249 2 4.9697159179013 -58.0709630939520 -109.0159027236900 -3.3599785969432
250 2 4.9696380916234 -55.2019452728780 -109.0089643609500 -3.3599786139640
251 2 5.7961853892364 -56.6322699438740 -113.6881571306000 -3.3599803304195
252 2 5.7960791828943 -53.7636145462930 -113.6815966163800 -3.3599803596665
253 2 3.3160239301695 -55.1979279074740 -113.6848663996000 -3.3599803438061
254 2 4.1427789123350 -53.7654974743090 -111.3435216979400 -3.3599795200243
255 2 3.3161185529095 -58.0666397152410 -113.6914659197000 -3.3599803196431
256 2 4.1428779138296 -56.6343016092640 -111.3502526188200 -3.3599794933450
257 2 1.6628069375418 -58.0687463161310 -111.3536442266400 -3.3599794843112
258 2 1.6627202399659 -55.1998849847520 -111.3468774481600 -3.3599795052973
259 2 8.2763409843710 -58.0666397152410 -113.6914659197000 -3.3599803196432
260 2 8.2762463616310 -55.1979279074740 -113.6848663996000 -3.3599803438061
261 2 9.1031003452910 -56.6343016092640 -111.3502526188200 -3.3599794933450
262 2 9.1030013437965 -53.7654974743090 -111.3435216979400 -3.3599795200242
263 2 6.6229426714274 -55.1998849847520 -111.3468774481600 -3.3599795052973
264 2 6.6230293690032 -58.0687463161310 -111.3536442266400 -3.3599794843112
265 2 2.4893620826201 -50.8986424398260 -108.9986979862800 -3.3599786624003
266 2 2.4892222346286 -48.0299353328500 -108.9919866966600 -3.3599787078955
267 2 0.0091837957995 -49.4642720956380 -108.9953267009900 -3.3599786839577
268 2 0.8355794348530 -48.0266651461350 -113.6687884332100 -3.3599804447737
269 2 0.0089815435707 -52.3276109845990 -116.0165790360800 -3.3347426119603
270 2 0.8357283634745 -50.8950774047090 -113.6751319817800 -3.3599803982122
271 2 7.4494446660901 -48.0299353328500 -108.9919866966600 -3.3599787078955
272 2 7.4495845140815 -50.8986424398260 -108.9986979862800 -3.3599786624003
273 2 4.9695344305817 -52.3330454242500 -109.0020969744300 -3.3599786434243
274 2 4.9694062272610 -49.4642720956380 -108.9953267009900 -3.3599786839577
275 2 5.7959507949360 -50.8950774047090 -113.6751319817800 -3.3599803982122
276 2 5.7958018663145 -48.0266651461350 -113.6687884332100 -3.3599804447737
277 2 3.3157675643113 -49.4608552836730 -113.6719434333900 -3.3599804205765
278 2 4.1425114590053 -48.0282577124910 -111.3303566151300 -3.3599796034053
279 2 3.3159064526436 -52.3293307604130 -113.6783507769400 -3.3599803778539
280 2 4.1426562315203 -50.8968137199830 -111.3368809739600 -3.3599795571690
281 2 1.6626092268850 -52.3311400702380 -111.3401884681400 -3.3599795373704
282 2 1.6624752749878 -49.4625193205020 -111.3336025435400 -3.3599795792428
283 2 8.2761288841051 -52.3293307604130 -113.6783507769400 -3.3599803778539
284 2 8.2759899957728 -49.4608552836730 -113.6719434333900 -3.3599804205765
285 2 9.1028786629818 -50.8968137199830 -111.3368809739600 -3.3599795571690
286 2 9.1027338904668 -48.0282577124910 -111.3303566151300 -3.3599796034054
287 2 6.6226977064492 -49.4625193205020 -111.3336025435400 -3.3599795792428
288 2 6.6228316583465 -52.3311400702380 -111.3401884681400 -3.3599795373704
289 2 2.4890606440060 -45.1613659946800 -108.9854154332600 -3.3599787620565
290 2 2.4888797710332 -42.2929405760040 -108.9790151129000 -3.3599788230911
291 2 0.0088612296518 -43.7271349603210 -108.9821919062700 -3.3599787918309
292 2 0.8352285279286 -42.2902371570440 -113.6565731677800 -3.3599805562099
293 2 0.0086772689571 -46.5910613856240 -116.0042480242300 -3.3347978004052
294 2 0.8354120078746 -45.1583835062410 -113.6625927537400 -3.3599804979411
295 2 7.4491022024946 -42.2929405760040 -108.9790151129000 -3.3599788230911
296 2 7.4492830754675 -45.1613659946800 -108.9854154332600 -3.3599787620565
297 2 4.9692552303267 -46.5956330296540 -108.9886816702700 -3.3599787340019
298 2 4.9690836611132 -43.7271349603210 -108.9821919062700 -3.3599787918309
299 2 5.7956344393361 -45.1583835062410 -113.6625927537400 -3.3599804979411
300 2 5.7954509593900 -42.2902371570440 -113.6565731677800 -3.3599805562099
301 2 3.3154333218488 -43.7242931746120 -113.6595591334500 -3.3599805265345
302 2 4.1421641590389 -42.2915537076660 -111.3177703085000 -3.3599797169351
303 2 3.3156091059466 -46.5925076798830 -113.6656703776800 -3.3599804706239
304 2 4.1423466151617 -45.1598359169110 -111.3239765445400 -3.3599796572081
305 2 1.6623201868512 -46.5940296744940 -111.3271467333000 -3.3599796294613
306 2 1.6621462021563 -43.7256770759690 -111.3208497918500 -3.3599796864371
307 2 8.2758315374080 -46.5925076798830 -113.6656703776800 -3.3599804706239
308 2 8.2756557533103 -43.7242931746120 -113.6595591334500 -3.3599805265345
309 2 9.1025690466231 -45.1598359169110 -111.3239765445400 -3.3599796572081
310 2 9.1023865905004 -42.2915537076660 -111.3177703085000 -3.3599797169351
311 2 6.6223686336177 -43.7256770759690 -111.3208497918500 -3.3599796864371
312 2 6.6225426183126 -46.5940296744940 -111.3271467333000 -3.3599796294613
313 2 2.4886825506194 -39.4246639001420 -108.9728182910900 -3.3599788891118
314 2 2.4884723749491 -36.5565392498800 -108.9668589103100 -3.3599789581911
315 2 0.0084676374095 -37.9905824325180 -108.9698067532900 -3.3599789233895
316 2 0.8348251355133 -36.5543626631770 -113.6451812161800 -3.3599806817944
317 2 0.0083099391899 -40.8550273639170 -115.9925748570600 -3.3348541142927
318 2 0.8350318338799 -39.4222295333650 -113.6507591559100 -3.3599806180192
319 2 7.4486948064106 -36.5565392498800 -108.9668589103100 -3.3599789581911
320 2 7.4489049820809 -39.4246639001420 -108.9728182910900 -3.3599788891118
321 2 4.9688942183754 -40.8587834014770 -108.9758891723600 -3.3599788555984
322 2 4.9686900688710 -37.9905824325180 -108.9698067532900 -3.3599789233895
323 2 5.7952542653413 -39.4222295333650 -113.6507591559100 -3.3599806180192
324 2 5.7950475669747 -36.5543626631770 -113.6451812161800 -3.3599806817944
325 2 3.3150407367709 -37.9882784367570 -113.6479387388200 -3.3599806497588
326 2 4.1417583880733 -36.5554229389940 -111.3060044636800 -3.3599798472741
327 2 3.3152428561206 -40.8562158428570 -113.6536385796300 -3.3599805867706
328 2 4.1419669821371 -39.4234151758550 -111.3117688901500 -3.3599797808708
329 2 1.6619559977951 -40.8574662817640 -111.3147420108400 -3.3599797484857
330 2 1.6617526748182 -37.9894006695730 -111.3088550035200 -3.3599798138723
331 2 8.2754652875820 -40.8562158428570 -113.6536385796300 -3.3599805867706
332 2 8.2752631682323 -37.9882784367570 -113.6479387388200 -3.3599806497588
333 2 9.1021894135986 -39.4234151758550 -111.3117688901500 -3.3599797808708
334 2 9.1019808195347 -36.5554229389940 -111.3060044636800 -3.3599798472740
335 2 6.6219751062797 -37.9894006695730 -111.3088550035200 -3.3599798138723
336 2 6.6221784292566 -40.8574662817640 -111.3147420108400 -3.3599797484857
337 2 2.4882530587830 -33.6885681621070 -108.9611719781600 -3.3599790284231
338 2 2.4880287859218 -30.8207502387650 -108.9557931729800 -3.3599790979869
339 2 0.0080300521699 -32.2546401600290 -108.9584418158600 -3.3599790633973
340 2 0.8343961837565 -30.8190513190090 -113.6348588090000 -3.3599808091475
341 2 0.0079017132262 -35.1195312443460 -115.9817832185700 -3.3349097619288
342 2 0.8346119767390 -33.6866370078370 -113.6398705695200 -3.3599807459923
343 2 7.4482512173833 -30.8207502387650 -108.9557931729800 -3.3599790979869
344 2 7.4484754902444 -33.6885681621070 -108.9611719781600 -3.3599790284231
345 2 4.9684748215600 -35.1225344881470 -108.9639791688700 -3.3599789932795
346 2 4.9682524836314 -32.2546401600290 -108.9584418158600 -3.3599790633973
347 2 5.7948344082004 -33.6866370078370 -113.6398705695200 -3.3599807459923
348 2 5.7946186152180 -30.8190513190090 -113.6348588090000 -3.3599808091475
349 2 3.3146153768208 -32.2528268158680 -113.6373253501000 -3.3599807777876
350 2 4.1413219902717 -30.8198793815690 -111.2953193233000 -3.3599799807137
351 2 3.3148303461745 -35.1204822200700 -113.6424905108800 -3.3599807139344
352 2 4.1415420565155 -33.6875779597910 -111.3005100857600 -3.3599799144322
353 2 1.6615397304104 -35.1214820513070 -111.3032214278800 -3.3599798808632
354 2 1.6613210135018 -32.2537104991940 -111.2978746462100 -3.3599799477799
355 2 8.2750527776360 -35.1204822200700 -113.6424905108800 -3.3599807139344
356 2 8.2748378082822 -32.2528268158680 -113.6373253501000 -3.3599807777876
357 2 9.1017644879770 -33.6875779597910 -111.3005100857600 -3.3599799144322
358 2 9.1015444217331 -30.8198793815690 -111.2953193233000 -3.3599799807137
359 2 6.6215434449632 -32.2537104991940 -111.2978746462100 -3.3599799477798
360 2 6.6217621618719 -35.1214820513070 -111.3032214278800 -3.3599798808633
361 2 2.4878040361167 -27.9530829835950 -108.9507583783300 -3.3599791652069
362 2 2.4875834927131 -25.0855616747230 -108.9461031506600 -3.3599792286049
363 2 0.0075817251225 -26.5193044705120 -108.9483811249000 -3.3599791974671
364 2 0.8339729946480 -25.0842856163050 -113.6258577023200 -3.3599809271017
365 2 0.0074797097181 -29.3845728514770 -115.9721080752400 -3.3349626321400
366 2 0.8341817980208 -27.9516025196030 -113.6301774951300 -3.3599808699140
367 2 7.4478059241746 -25.0855616747230 -108.9461031506600 -3.3599792286049
368 2 7.4480264675782 -27.9530829835950 -108.9507583783300 -3.3599791652069
369 2 4.9680273972214 -29.3868980194100 -108.9532305377400 -3.3599791319874
370 2 4.9678041565839 -26.5193044705120 -108.9483811249000 -3.3599791974671
371 2 5.7944042294823 -27.9516025196030 -113.6301774951300 -3.3599808699141
372 2 5.7941954261095 -25.0842856163050 -113.6258577023200 -3.3599809271017
373 2 3.3141876506116 -26.5179279694990 -113.6279704987100 -3.3599808990228
374 2 4.1408878429536 -25.0849081006870 -111.2859828002400 -3.3599801048248
375 2 3.3143997718512 -29.3853100745230 -113.6324748870700 -3.3599808399078
376 2 4.1411024451312 -27.9523243886890 -111.2904658190600 -3.3599800446193
377 2 1.6611006632310 -29.3860841926240 -111.2928483213500 -3.3599800130507
378 2 1.6608830302866 -26.5185992943280 -111.2881759529900 -3.3599800752595
379 2 8.2746222033127 -29.3853100745230 -113.6324748870700 -3.3599808399077
380 2 8.2744100820730 -26.5179279694990 -113.6279704987100 -3.3599808990228
381 2 9.1013248765926 -27.9523243886890 -111.2904658190600 -3.3599800446192
382 2 9.1011102744150 -25.0849081006870 -111.2859828002400 -3.3599801048248
383 2 6.6211054617481 -26.5185992943280 -111.2881759529900 -3.3599800752595
384 2 6.6213230946925 -29.3860841926240 -111.2928483213500 -3.3599800130507
385 2 2.4873719325170 -22.2181792831830 -108.9418621297300 -3.3599792869389
386 2 2.4871741007009 -19.3509264467830 -108.9380684051000 -3.3599793392245
387 2 0.0071597931571 -20.7845373463140 -108.9399073657700 -3.3599793138890
388 2 0.8335889256262 -19.3500176981710 -113.6184215531700 -3.3599810268994
389 2 0.0070743944935 -23.6501256625260 -115.9637851735200 -3.3350104020230
390 2 0.8337739878086 -22.2170936510590 -113.6219295247000 -3.3599809797015
391 2 7.4473965321623 -19.3509264467830 -108.9380684051000 -3.3599793392246
392 2 7.4475943639784 -22.2181792831830 -108.9418621297300 -3.3599792869389