ITEM: TIMESTEP
0
ITEM: NUMBER OF ATOMS
32640
ITEM: BOX BOUNDS pp pp pp
0.0000000000000 9.9204448629229
-114.5514302417877 114.5514302417877
-119.2518351943208 119.2518351943208
ITEM: ATOMS id type x y z q
1 1 2.4801112157307 -113.1195373637654 -108.7296144418807 0.0000000000000
2 1 2.4801112157307 -110.2557516077207 -108.7296144418807 0.0000000000000
3 1 0.0000000000000 -111.6876444857430 -108.7296144418807 0.0000000000000
4 1 0.8267037385769 -110.2557516077207 -113.4061569985207 0.0000000000000
5 1 0.0000000000000 -114.5514302417877 -115.7444282768408 0.0000000000000
6 1 0.8267037385769 -113.1195373637654 -113.4061569985207 0.0000000000000
7 1 7.4403336471922 -110.2557516077207 -108.7296144418807 0.0000000000000
8 1 7.4403336471922 -113.1195373637654 -108.7296144418807 0.0000000000000
9 1 4.9602224314615 -114.5514302417877 -108.7296144418807 0.0000000000000
10 1 4.9602224314615 -111.6876444857430 -108.7296144418807 0.0000000000000
11 1 5.7869261700384 -113.1195373637654 -113.4061569985207 0.0000000000000
12 1 5.7869261700384 -110.2557516077207 -113.4061569985207 0.0000000000000
13 1 3.3068149543076 -111.6876444857430 -113.4061569985207 0.0000000000000
14 1 4.1335186928845 -110.2557516077207 -111.0678857202007 0.0000000000000
15 1 3.3068149543076 -114.5514302417877 -113.4061569985207 0.0000000000000
16 1 4.1335186928845 -113.1195373637654 -111.0678857202007 0.0000000000000
17 1 1.6534074771538 -114.5514302417877 -111.0678857202007 0.0000000000000
18 1 1.6534074771538 -111.6876444857430 -111.0678857202007 0.0000000000000
19 1 8.2670373857691 -114.5514302417877 -113.4061569985207 0.0000000000000
20 1 8.2670373857691 -111.6876444857430 -113.4061569985207 0.0000000000000
21 1 9.0937411243460 -113.1195373637654 -111.0678857202007 0.0000000000000
22 1 9.0937411243460 -110.2557516077207 -111.0678857202007 0.0000000000000
23 1 6.6136299086153 -111.6876444857430 -111.0678857202007 0.0000000000000
24 1 6.6136299086153 -114.5514302417877 -111.0678857202007 0.0000000000000
25 1 2.4801112157307 -107.3919658516760 -108.7296144418807 0.0000000000000
26 1 2.4801112157307 -104.5281800956313 -108.7296144418807 0.0000000000000
27 1 0.0000000000000 -105.9600729736537 -108.7296144418807 0.0000000000000
28 1 0.8267037385769 -104.5281800956313 -113.4061569985207 0.0000000000000
29 1 0.0000000000000 -108.8238587296984 -115.7444282768408 0.0000000000000
30 1 0.8267037385769 -107.3919658516760 -113.4061569985207 0.0000000000000
31 1 7.4403336471922 -104.5281800956313 -108.7296144418807 0.0000000000000
32 1 7.4403336471922 -107.3919658516760 -108.7296144418807 0.0000000000000
33 1 4.9602224314615 -108.8238587296984 -108.7296144418807 0.0000000000000
34 1 4.9602224314615 -105.9600729736537 -108.7296144418807 0.0000000000000
35 1 5.7869261700384 -107.3919658516760 -113.4061569985207 0.0000000000000
36 1 5.7869261700384 -104.5281800956313 -113.4061569985207 0.0000000000000
37 1 3.3068149543076 -105.9600729736537 -113.4061569985207 0.0000000000000
38 1 4.1335186928845 -104.5281800956313 -111.0678857202007 0.0000000000000
39 1 3.3068149543076 -108.8238587296984 -113.4061569985207 0.0000000000000
40 1 4.1335186928845 -107.3919658516760 -111.0678857202007 0.0000000000000
41 1 1.6534074771538 -108.8238587296984 -111.0678857202007 0.0000000000000
42 1 1.6534074771538 -105.9600729736537 -111.0678857202007 0.0000000000000
43 1 8.2670373857691 -108.8238587296984 -113.4061569985207 0.0000000000000
44 1 8.2670373857691 -105.9600729736537 -113.4061569985207 0.0000000000000
45 1 9.0937411243460 -107.3919658516760 -111.0678857202007 0.0000000000000
46 1 9.0937411243460 -104.5281800956313 -111.0678857202007 0.0000000000000
47 1 6.6136299086153 -105.9600729736537 -111.0678857202007 0.0000000000000
48 1 6.6136299086153 -108.8238587296984 -111.0678857202007 0.0000000000000
49 1 2.4801112157307 -101.6643943395866 -108.7296144418807 0.0000000000000
50 1 2.4801112157307 -98.8006085835419 -108.7296144418807 0.0000000000000
51 1 0.0000000000000 -100.2325014615643 -108.7296144418807 0.0000000000000
52 1 0.8267037385769 -98.8006085835419 -113.4061569985207 0.0000000000000
53 1 0.0000000000000 -103.0962872176090 -115.7444282768408 0.0000000000000
54 1 0.8267037385769 -101.6643943395866 -113.4061569985207 0.0000000000000
55 1 7.4403336471922 -98.8006085835419 -108.7296144418807 0.0000000000000
56 1 7.4403336471922 -101.6643943395866 -108.7296144418807 0.0000000000000
57 1 4.9602224314615 -103.0962872176090 -108.7296144418807 0.0000000000000
58 1 4.9602224314615 -100.2325014615643 -108.7296144418807 0.0000000000000
59 1 5.7869261700384 -101.6643943395866 -113.4061569985207 0.0000000000000
60 1 5.7869261700384 -98.8006085835419 -113.4061569985207 0.0000000000000
61 1 3.3068149543076 -100.2325014615643 -113.4061569985207 0.0000000000000
62 1 4.1335186928845 -98.8006085835419 -111.0678857202007 0.0000000000000
63 1 3.3068149543076 -103.0962872176090 -113.4061569985207 0.0000000000000
64 1 4.1335186928845 -101.6643943395866 -111.0678857202007 0.0000000000000
65 1 1.6534074771538 -103.0962872176090 -111.0678857202007 0.0000000000000
66 1 1.6534074771538 -100.2325014615643 -111.0678857202007 0.0000000000000
67 1 8.2670373857691 -103.0962872176090 -113.4061569985207 0.0000000000000
68 1 8.2670373857691 -100.2325014615643 -113.4061569985207 0.0000000000000
69 1 9.0937411243460 -101.6643943395866 -111.0678857202007 0.0000000000000
70 1 9.0937411243460 -98.8006085835419 -111.0678857202007 0.0000000000000
71 1 6.6136299086153 -100.2325014615643 -111.0678857202007 0.0000000000000
72 1 6.6136299086153 -103.0962872176090 -111.0678857202007 0.0000000000000
73 1 2.4801112157307 -95.9368228274972 -108.7296144418807 0.0000000000000
74 1 2.4801112157307 -93.0730370714525 -108.7296144418807 0.0000000000000
75 1 0.0000000000000 -94.5049299494749 -108.7296144418807 0.0000000000000
76 1 0.8267037385769 -93.0730370714525 -113.4061569985207 0.0000000000000
77 1 0.0000000000000 -97.3687157055196 -115.7444282768408 0.0000000000000
78 1 0.8267037385769 -95.9368228274972 -113.4061569985207 0.0000000000000
79 1 7.4403336471922 -93.0730370714525 -108.7296144418807 0.0000000000000
80 1 7.4403336471922 -95.9368228274972 -108.7296144418807 0.0000000000000
81 1 4.9602224314615 -97.3687157055196 -108.7296144418807 0.0000000000000
82 1 4.9602224314615 -94.5049299494749 -108.7296144418807 0.0000000000000
83 1 5.7869261700384 -95.9368228274972 -113.4061569985207 0.0000000000000
84 1 5.7869261700384 -93.0730370714525 -113.4061569985207 0.0000000000000
85 1 3.3068149543076 -94.5049299494749 -113.4061569985207 0.0000000000000
86 1 4.1335186928845 -93.0730370714525 -111.0678857202007 0.0000000000000
87 1 3.3068149543076 -97.3687157055196 -113.4061569985207 0.0000000000000
88 1 4.1335186928845 -95.9368228274972 -111.0678857202007 0.0000000000000
89 1 1.6534074771538 -97.3687157055196 -111.0678857202007 0.0000000000000
90 1 1.6534074771538 -94.5049299494749 -111.0678857202007 0.0000000000000
91 1 8.2670373857691 -97.3687157055196 -113.4061569985207 0.0000000000000
92 1 8.2670373857691 -94.5049299494749 -113.4061569985207 0.0000000000000
93 1 9.0937411243460 -95.9368228274972 -111.0678857202007 0.0000000000000
94 1 9.0937411243460 -93.0730370714525 -111.0678857202007 0.0000000000000
95 1 6.6136299086153 -94.5049299494749 -111.0678857202007 0.0000000000000
96 1 6.6136299086153 -97.3687157055196 -111.0678857202007 0.0000000000000
97 1 2.4801112157307 -90.2092513154078 -108.7296144418807 0.0000000000000
98 1 2.4801112157307 -87.3454655593631 -108.7296144418807 0.0000000000000
99 1 0.0000000000000 -88.7773584373855 -108.7296144418807 0.0000000000000
100 1 0.8267037385769 -87.3454655593631 -113.4061569985207 0.0000000000000
101 1 0.0000000000000 -91.6411441934302 -115.7444282768408 0.0000000000000
102 1 0.8267037385769 -90.2092513154078 -113.4061569985207 0.0000000000000
103 1 7.4403336471922 -87.3454655593631 -108.7296144418807 0.0000000000000
104 1 7.4403336471922 -90.2092513154078 -108.7296144418807 0.0000000000000
105 1 4.9602224314615 -91.6411441934302 -108.7296144418807 0.0000000000000
106 1 4.9602224314615 -88.7773584373855 -108.7296144418807 0.0000000000000
107 1 5.7869261700384 -90.2092513154078 -113.4061569985207 0.0000000000000
108 1 5.7869261700384 -87.3454655593631 -113.4061569985207 0.0000000000000
109 1 3.3068149543076 -88.7773584373855 -113.4061569985207 0.0000000000000
110 1 4.1335186928845 -87.3454655593631 -111.0678857202007 0.0000000000000
111 1 3.3068149543076 -91.6411441934302 -113.4061569985207 0.0000000000000
112 1 4.1335186928845 -90.2092513154078 -111.0678857202007 0.0000000000000
113 1 1.6534074771538 -91.6411441934302 -111.0678857202007 0.0000000000000
114 1 1.6534074771538 -88.7773584373855 -111.0678857202007 0.0000000000000
115 1 8.2670373857691 -91.6411441934302 -113.4061569985207 0.0000000000000
116 1 8.2670373857691 -88.7773584373855 -113.4061569985207 0.0000000000000
117 1 9.0937411243460 -90.2092513154078 -111.0678857202007 0.0000000000000
118 1 9.0937411243460 -87.3454655593631 -111.0678857202007 0.0000000000000
119 1 6.6136299086153 -88.7773584373855 -111.0678857202007 0.0000000000000
120 1 6.6136299086153 -91.6411441934302 -111.0678857202007 0.0000000000000
121 1 2.4801112157307 -84.4816798033185 -108.7296144418807 0.0000000000000
122 1 2.4801112157307 -81.6178940472738 -108.7296144418807 0.0000000000000
123 1 0.0000000000000 -83.0497869252961 -108.7296144418807 0.0000000000000
124 1 0.8267037385769 -81.6178940472738 -113.4061569985207 0.0000000000000
125 1 0.0000000000000 -85.9135726813408 -115.7444282768408 0.0000000000000
126 1 0.8267037385769 -84.4816798033185 -113.4061569985207 0.0000000000000
127 1 7.4403336471922 -81.6178940472738 -108.7296144418807 0.0000000000000
128 1 7.4403336471922 -84.4816798033185 -108.7296144418807 0.0000000000000
129 1 4.9602224314615 -85.9135726813408 -108.7296144418807 0.0000000000000
130 1 4.9602224314615 -83.0497869252961 -108.7296144418807 0.0000000000000
131 1 5.7869261700384 -84.4816798033185 -113.4061569985207 0.0000000000000
132 1 5.7869261700384 -81.6178940472738 -113.4061569985207 0.0000000000000
133 1 3.3068149543076 -83.0497869252961 -113.4061569985207 0.0000000000000
134 1 4.1335186928845 -81.6178940472738 -111.0678857202007 0.0000000000000
135 1 3.3068149543076 -85.9135726813408 -113.4061569985207 0.0000000000000
136 1 4.1335186928845 -84.4816798033185 -111.0678857202007 0.0000000000000
137 1 1.6534074771538 -85.9135726813408 -111.0678857202007 0.0000000000000
138 1 1.6534074771538 -83.0497869252961 -111.0678857202007 0.0000000000000
139 1 8.2670373857691 -85.9135726813408 -113.4061569985207 0.0000000000000
140 1 8.2670373857691 -83.0497869252961 -113.4061569985207 0.0000000000000
141 1 9.0937411243460 -84.4816798033185 -111.0678857202007 0.0000000000000
142 1 9.0937411243460 -81.6178940472738 -111.0678857202007 0.0000000000000
143 1 6.6136299086153 -83.0497869252961 -111.0678857202007 0.0000000000000
144 1 6.6136299086153 -85.9135726813408 -111.0678857202007 0.0000000000000
145 1 2.4801112157307 -78.7541082912291 -108.7296144418807 0.0000000000000
146 1 2.4801112157307 -75.8903225351844 -108.7296144418807 0.0000000000000
147 1 0.0000000000000 -77.3222154132067 -108.7296144418807 0.0000000000000
148 1 0.8267037385769 -75.8903225351844 -113.4061569985207 0.0000000000000
149 1 0.0000000000000 -80.1860011692514 -115.7444282768408 0.0000000000000
150 1 0.8267037385769 -78.7541082912291 -113.4061569985207 0.0000000000000
151 1 7.4403336471922 -75.8903225351844 -108.7296144418807 0.0000000000000
152 1 7.4403336471922 -78.7541082912291 -108.7296144418807 0.0000000000000
153 1 4.9602224314615 -80.1860011692514 -108.7296144418807 0.0000000000000
154 1 4.9602224314615 -77.3222154132067 -108.7296144418807 0.0000000000000
155 1 5.7869261700384 -78.7541082912291 -113.4061569985207 0.0000000000000
156 1 5.7869261700384 -75.8903225351844 -113.4061569985207 0.0000000000000
157 1 3.3068149543076 -77.3222154132067 -113.4061569985207 0.0000000000000
158 1 4.1335186928845 -75.8903225351844 -111.0678857202007 0.0000000000000
159 1 3.3068149543076 -80.1860011692514 -113.4061569985207 0.0000000000000
160 1 4.1335186928845 -78.7541082912291 -111.0678857202007 0.0000000000000
161 1 1.6534074771538 -80.1860011692514 -111.0678857202007 0.0000000000000
162 1 1.6534074771538 -77.3222154132067 -111.0678857202007 0.0000000000000
163 1 8.2670373857691 -80.1860011692514 -113.4061569985207 0.0000000000000
164 1 8.2670373857691 -77.3222154132067 -113.4061569985207 0.0000000000000
165 1 9.0937411243460 -78.7541082912291 -111.0678857202007 0.0000000000000
166 1 9.0937411243460 -75.8903225351844 -111.0678857202007 0.0000000000000
167 1 6.6136299086153 -77.3222154132067 -111.0678857202007 0.0000000000000
168 1 6.6136299086153 -80.1860011692514 -111.0678857202007 0.0000000000000
169 1 2.4801112157307 -73.0265367791397 -108.7296144418807 0.0000000000000
170 1 2.4801112157307 -70.1627510230950 -108.7296144418807 0.0000000000000
171 1 0.0000000000000 -71.5946439011173 -108.7296144418807 0.0000000000000
172 1 0.8267037385769 -70.1627510230950 -113.4061569985207 0.0000000000000
173 1 0.0000000000000 -74.4584296571620 -115.7444282768408 0.0000000000000
174 1 0.8267037385769 -73.0265367791397 -113.4061569985207 0.0000000000000
175 1 7.4403336471922 -70.1627510230950 -108.7296144418807 0.0000000000000
176 1 7.4403336471922 -73.0265367791397 -108.7296144418807 0.0000000000000
177 1 4.9602224314615 -74.4584296571620 -108.7296144418807 0.0000000000000
178 1 4.9602224314615 -71.5946439011173 -108.7296144418807 0.0000000000000
179 1 5.7869261700384 -73.0265367791397 -113.4061569985207 0.0000000000000
180 1 5.7869261700384 -70.1627510230950 -113.4061569985207 0.0000000000000
181 1 3.3068149543076 -71.5946439011173 -113.4061569985207 0.0000000000000
182 1 4.1335186928845 -70.1627510230950 -111.0678857202007 0.0000000000000
183 1 3.3068149543076 -74.4584296571620 -113.4061569985207 0.0000000000000
184 1 4.1335186928845 -73.0265367791397 -111.0678857202007 0.0000000000000
185 1 1.6534074771538 -74.4584296571620 -111.0678857202007 0.0000000000000
186 1 1.6534074771538 -71.5946439011173 -111.0678857202007 0.0000000000000
187 1 8.2670373857691 -74.4584296571620 -113.4061569985207 0.0000000000000
188 1 8.2670373857691 -71.5946439011173 -113.4061569985207 0.0000000000000
189 1 9.0937411243460 -73.0265367791397 -111.0678857202007 0.0000000000000
190 1 9.0937411243460 -70.1627510230950 -111.0678857202007 0.0000000000000
191 1 6.6136299086153 -71.5946439011173 -111.0678857202007 0.0000000000000
192 1 6.6136299086153 -74.4584296571620 -111.0678857202007 0.0000000000000
193 1 2.4801112157307 -67.2989652670503 -108.7296144418807 0.0000000000000
194 1 2.4801112157307 -64.4351795110056 -108.7296144418807 0.0000000000000
195 1 0.0000000000000 -65.8670723890280 -108.7296144418807 0.0000000000000
196 1 0.8267037385769 -64.4351795110056 -113.4061569985207 0.0000000000000
197 1 0.0000000000000 -68.7308581450727 -115.7444282768408 0.0000000000000
198 1 0.8267037385769 -67.2989652670503 -113.4061569985207 0.0000000000000
199 1 7.4403336471922 -64.4351795110056 -108.7296144418807 0.0000000000000
200 1 7.4403336471922 -67.2989652670503 -108.7296144418807 0.0000000000000
201 1 4.9602224314615 -68.7308581450727 -108.7296144418807 0.0000000000000
202 1 4.9602224314615 -65.8670723890280 -108.7296144418807 0.0000000000000
203 1 5.7869261700384 -67.2989652670503 -113.4061569985207 0.0000000000000
204 1 5.7869261700384 -64.4351795110056 -113.4061569985207 0.0000000000000
205 1 3.3068149543076 -65.8670723890280 -113.4061569985207 0.0000000000000
206 1 4.1335186928845 -64.4351795110056 -111.0678857202007 0.0000000000000
207 1 3.3068149543076 -68.7308581450727 -113.4061569985207 0.0000000000000
208 1 4.1335186928845 -67.2989652670503 -111.0678857202007 0.0000000000000
209 1 1.6534074771538 -68.7308581450727 -111.0678857202007 0.0000000000000
210 1 1.6534074771538 -65.8670723890280 -111.0678857202007 0.0000000000000
211 1 8.2670373857691 -68.7308581450727 -113.4061569985207 0.0000000000000
212 1 8.2670373857691 -65.8670723890280 -113.4061569985207 0.0000000000000
213 1 9.0937411243460 -67.2989652670503 -111.0678857202007 0.0000000000000
214 1 9.0937411243460 -64.4351795110056 -111.0678857202007 0.0000000000000
215 1 6.6136299086153 -65.8670723890280 -111.0678857202007 0.0000000000000
216 1 6.6136299086153 -68.7308581450727 -111.0678857202007 0.0000000000000
217 1 2.4801112157307 -61.5713937549609 -108.7296144418807 0.0000000000000
218 1 2.4801112157307 -58.7076079989162 -108.7296144418807 0.0000000000000
219 1 0.0000000000000 -60.1395008769386 -108.7296144418807 0.0000000000000
220 1 0.8267037385769 -58.7076079989162 -113.4061569985207 0.0000000000000
221 1 0.0000000000000 -63.0032866329833 -115.7444282768408 0.0000000000000
222 1 0.8267037385769 -61.5713937549609 -113.4061569985207 0.0000000000000
223 1 7.4403336471922 -58.7076079989162 -108.7296144418807 0.0000000000000
224 1 7.4403336471922 -61.5713937549609 -108.7296144418807 0.0000000000000
225 1 4.9602224314615 -63.0032866329833 -108.7296144418807 0.0000000000000
226 1 4.9602224314615 -60.1395008769386 -108.7296144418807 0.0000000000000
227 1 5.7869261700384 -61.5713937549609 -113.4061569985207 0.0000000000000
228 1 5.7869261700384 -58.7076079989162 -113.4061569985207 0.0000000000000
229 1 3.3068149543076 -60.1395008769386 -113.4061569985207 0.0000000000000
230 1 4.1335186928845 -58.7076079989162 -111.0678857202007 0.0000000000000
231 1 3.3068149543076 -63.0032866329833 -113.4061569985207 0.0000000000000
232 1 4.1335186928845 -61.5713937549609 -111.0678857202007 0.0000000000000
233 1 1.6534074771538 -63.0032866329833 -111.0678857202007 0.0000000000000
234 1 1.6534074771538 -60.1395008769386 -111.0678857202007 0.0000000000000
235 1 8.2670373857691 -63.0032866329833 -113.4061569985207 0.0000000000000
236 1 8.2670373857691 -60.1395008769386 -113.4061569985207 0.0000000000000
237 1 9.0937411243460 -61.5713937549609 -111.0678857202007 0.0000000000000
238 1 9.0937411243460 -58.7076079989162 -111.0678857202007 0.0000000000000
239 1 6.6136299086153 -60.1395008769386 -111.0678857202007 0.0000000000000
240 1 6.6136299086153 -63.0032866329833 -111.0678857202007 0.0000000000000
241 1 2.4801112157307 -55.8438222428715 -108.7296144418807 0.0000000000000
242 1 2.4801112157307 -52.9800364868268 -108.7296144418807 0.0000000000000
243 1 0.0000000000000 -54.4119293648492 -108.7296144418807 0.0000000000000
244 1 0.8267037385769 -52.9800364868268 -113.4061569985207 0.0000000000000
245 1 0.0000000000000 -57.2757151208939 -115.7444282768408 0.0000000000000
246 1 0.8267037385769 -55.8438222428715 -113.4061569985207 0.0000000000000
247 1 7.4403336471922 -52.9800364868268 -108.7296144418807 0.0000000000000
248 1 7.4403336471922 -55.8438222428715 -108.7296144418807 0.0000000000000
249 1 4.9602224314615 -57.2757151208939 -108.7296144418807 0.0000000000000
250 1 4.9602224314615 -54.4119293648492 -108.7296144418807 0.0000000000000
251 1 5.7869261700384 -55.8438222428715 -113.4061569985207 0.0000000000000
252 1 5.7869261700384 -52.9800364868268 -113.4061569985207 0.0000000000000
253 1 3.3068149543076 -54.4119293648492 -113.4061569985207 0.0000000000000
254 1 4.1335186928845 -52.9800364868268 -111.0678857202007 0.0000000000000
255 1 3.3068149543076 -57.2757151208939 -113.4061569985207 0.0000000000000
256 1 4.1335186928845 -55.8438222428715 -111.0678857202007 0.0000000000000
257 1 1.6534074771538 -57.2757151208939 -111.0678857202007 0.0000000000000
258 1 1.6534074771538 -54.4119293648492 -111.0678857202007 0.0000000000000
259 1 8.2670373857691 -57.2757151208939 -113.4061569985207 0.0000000000000
260 1 8.2670373857691 -54.4119293648492 -113.4061569985207 0.0000000000000
261 1 9.0937411243460 -55.8438222428715 -111.0678857202007 0.0000000000000
262 1 9.0937411243460 -52.9800364868268 -111.0678857202007 0.0000000000000
263 1 6.6136299086153 -54.4119293648492 -111.0678857202007 0.0000000000000
264 1 6.6136299086153 -57.2757151208939 -111.0678857202007 0.0000000000000
265 1 2.4801112157307 -50.1162507307822 -108.7296144418807 0.0000000000000
266 1 2.4801112157307 -47.2524649747374 -108.7296144418807 0.0000000000000
267 1 0.0000000000000 -48.6843578527598 -108.7296144418807 0.0000000000000
268 1 0.8267037385769 -47.2524649747374 -113.4061569985207 0.0000000000000
269 1 0.0000000000000 -51.5481436088045 -115.7444282768408 0.0000000000000
270 1 0.8267037385769 -50.1162507307822 -113.4061569985207 0.0000000000000
271 1 7.4403336471922 -47.2524649747374 -108.7296144418807 0.0000000000000
272 1 7.4403336471922 -50.1162507307822 -108.7296144418807 0.0000000000000
273 1 4.9602224314615 -51.5481436088045 -108.7296144418807 0.0000000000000
274 1 4.9602224314615 -48.6843578527598 -108.7296144418807 0.0000000000000
275 1 5.7869261700384 -50.1162507307822 -113.4061569985207 0.0000000000000
276 1 5.7869261700384 -47.2524649747374 -113.4061569985207 0.0000000000000
277 1 3.3068149543076 -48.6843578527598 -113.4061569985207 0.0000000000000
278 1 4.1335186928845 -47.2524649747374 -111.0678857202007 0.0000000000000
279 1 3.3068149543076 -51.5481436088045 -113.4061569985207 0.0000000000000
280 1 4.1335186928845 -50.1162507307822 -111.0678857202007 0.0000000000000
281 1 1.6534074771538 -51.5481436088045 -111.0678857202007 0.0000000000000
282 1 1.6534074771538 -48.6843578527598 -111.0678857202007 0.0000000000000
283 1 8.2670373857691 -51.5481436088045 -113.4061569985207 0.0000000000000
284 1 8.2670373857691 -48.6843578527598 -113.4061569985207 0.0000000000000
285 1 9.0937411243460 -50.1162507307822 -111.0678857202007 0.0000000000000
286 1 9.0937411243460 -47.2524649747374 -111.0678857202007 0.0000000000000
287 1 6.6136299086153 -48.6843578527598 -111.0678857202007 0.0000000000000
288 1 6.6136299086153 -51.5481436088045 -111.0678857202007 0.0000000000000
289 1 2.4801112157307 -44.3886792186927 -108.7296144418807 0.0000000000000
290 1 2.4801112157307 -41.5248934626481 -108.7296144418807 0.0000000000000
291 1 0.0000000000000 -42.9567863406704 -108.7296144418807 0.0000000000000
292 1 0.8267037385769 -41.5248934626481 -113.4061569985207 0.0000000000000
293 1 0.0000000000000 -45.8205720967151 -115.7444282768408 0.0000000000000
294 1 0.8267037385769 -44.3886792186927 -113.4061569985207 0.0000000000000
295 1 7.4403336471922 -41.5248934626481 -108.7296144418807 0.0000000000000
296 1 7.4403336471922 -44.3886792186927 -108.7296144418807 0.0000000000000
297 1 4.9602224314615 -45.8205720967151 -108.7296144418807 0.0000000000000
298 1 4.9602224314615 -42.9567863406704 -108.7296144418807 0.0000000000000
299 1 5.7869261700384 -44.3886792186927 -113.4061569985207 0.0000000000000
300 1 5.7869261700384 -41.5248934626481 -113.4061569985207 0.0000000000000
301 1 3.3068149543076 -42.9567863406704 -113.4061569985207 0.0000000000000
302 1 4.1335186928845 -41.5248934626481 -111.0678857202007 0.0000000000000
303 1 3.3068149543076 -45.8205720967151 -113.4061569985207 0.0000000000000
304 1 4.1335186928845 -44.3886792186927 -111.0678857202007 0.0000000000000
305 1 1.6534074771538 -45.8205720967151 -111.0678857202007 0.0000000000000
306 1 1.6534074771538 -42.9567863406704 -111.0678857202007 0.0000000000000
307 1 8.2670373857691 -45.8205720967151 -113.4061569985207 0.0000000000000
308 1 8.2670373857691 -42.9567863406704 -113.4061569985207 0.0000000000000
309 1 9.0937411243460 -44.3886792186927 -111.0678857202007 0.0000000000000
310 1 9.0937411243460 -41.5248934626481 -111.0678857202007 0.0000000000000
311 1 6.6136299086153 -42.9567863406704 -111.0678857202007 0.0000000000000
312 1 6.6136299086153 -45.8205720967151 -111.0678857202007 0.0000000000000
313 1 2.4801112157307 -38.6611077066034 -108.7296144418807 0.0000000000000
314 1 2.4801112157307 -35.7973219505587 -108.7296144418807 0.0000000000000
315 1 0.0000000000000 -37.2292148285810 -108.7296144418807 0.0000000000000
316 1 0.8267037385769 -35.7973219505587 -113.4061569985207 0.0000000000000
317 1 0.0000000000000 -40.0930005846257 -115.7444282768408 0.0000000000000
318 1 0.8267037385769 -38.6611077066034 -113.4061569985207 0.0000000000000
319 1 7.4403336471922 -35.7973219505587 -108.7296144418807 0.0000000000000
320 1 7.4403336471922 -38.6611077066034 -108.7296144418807 0.0000000000000
321 1 4.9602224314615 -40.0930005846257 -108.7296144418807 0.0000000000000
322 1 4.9602224314615 -37.2292148285810 -108.7296144418807 0.0000000000000
323 1 5.7869261700384 -38.6611077066034 -113.4061569985207 0.0000000000000
324 1 5.7869261700384 -35.7973219505587 -113.4061569985207 0.0000000000000
325 1 3.3068149543076 -37.2292148285810 -113.4061569985207 0.0000000000000
326 1 4.1335186928845 -35.7973219505587 -111.0678857202007 0.0000000000000
327 1 3.3068149543076 -40.0930005846257 -113.4061569985207 0.0000000000000
328 1 4.1335186928845 -38.6611077066034 -111.0678857202007 0.0000000000000
329 1 1.6534074771538 -40.0930005846257 -111.0678857202007 0.0000000000000
330 1 1.6534074771538 -37.2292148285810 -111.0678857202007 0.0000000000000
331 1 8.2670373857691 -40.0930005846257 -113.4061569985207 0.0000000000000
332 1 8.2670373857691 -37.2292148285810 -113.4061569985207 0.0000000000000
333 1 9.0937411243460 -38.6611077066034 -111.0678857202007 0.0000000000000
334 1 9.0937411243460 -35.7973219505587 -111.0678857202007 0.0000000000000
335 1 6.6136299086153 -37.2292148285810 -111.0678857202007 0.0000000000000
336 1 6.6136299086153 -40.0930005846257 -111.0678857202007 0.0000000000000
337 1 2.4801112157307 -32.9335361945140 -108.7296144418807 0.0000000000000
338 1 2.4801112157307 -30.0697504384693 -108.7296144418807 0.0000000000000
339 1 0.0000000000000 -31.5016433164916 -108.7296144418807 0.0000000000000
340 1 0.8267037385769 -30.0697504384693 -113.4061569985207 0.0000000000000
341 1 0.0000000000000 -34.3654290725363 -115.7444282768408 0.0000000000000
342 1 0.8267037385769 -32.9335361945140 -113.4061569985207 0.0000000000000
343 1 7.4403336471922 -30.0697504384693 -108.7296144418807 0.0000000000000
344 1 7.4403336471922 -32.9335361945140 -108.7296144418807 0.0000000000000
345 1 4.9602224314615 -34.3654290725363 -108.7296144418807 0.0000000000000
346 1 4.9602224314615 -31.5016433164916 -108.7296144418807 0.0000000000000
347 1 5.7869261700384 -32.9335361945140 -113.4061569985207 0.0000000000000
348 1 5.7869261700384 -30.0697504384693 -113.4061569985207 0.0000000000000
349 1 3.3068149543076 -31.5016433164916 -113.4061569985207 0.0000000000000
350 1 4.1335186928845 -30.0697504384693 -111.0678857202007 0.0000000000000
351 1 3.3068149543076 -34.3654290725363 -113.4061569985207 0.0000000000000
352 1 4.1335186928845 -32.9335361945140 -111.0678857202007 0.0000000000000
353 1 1.6534074771538 -34.3654290725363 -111.0678857202007 0.0000000000000
354 1 1.6534074771538 -31.5016433164916 -111.0678857202007 0.0000000000000
355 1 8.2670373857691 -34.3654290725363 -113.4061569985207 0.0000000000000
356 1 8.2670373857691 -31.5016433164916 -113.4061569985207 0.0000000000000
357 1 9.0937411243460 -32.9335361945140 -111.0678857202007 0.0000000000000
358 1 9.0937411243460 -30.0697504384693 -111.0678857202007 0.0000000000000
359 1 6.6136299086153 -31.5016433164916 -111.0678857202007 0.0000000000000
360 1 6.6136299086153 -34.3654290725363 -111.0678857202007 0.0000000000000
361 1 2.4801112157307 -27.2059646824246 -108.7296144418807 0.0000000000000
362 1 2.4801112157307 -24.3421789263799 -108.7296144418807 0.0000000000000
363 1 0.0000000000000 -25.7740718044022 -108.7296144418807 0.0000000000000
364 1 0.8267037385769 -24.3421789263799 -113.4061569985207 0.0000000000000
365 1 0.0000000000000 -28.6378575604469 -115.7444282768408 0.0000000000000
366 1 0.8267037385769 -27.2059646824246 -113.4061569985207 0.0000000000000
367 1 7.4403336471922 -24.3421789263799 -108.7296144418807 0.0000000000000
368 1 7.4403336471922 -27.2059646824246 -108.7296144418807 0.0000000000000
369 1 4.9602224314615 -28.6378575604469 -108.7296144418807 0.0000000000000
370 1 4.9602224314615 -25.7740718044022 -108.7296144418807 0.0000000000000
371 1 5.7869261700384 -27.2059646824246 -113.4061569985207 0.0000000000000
372 1 5.7869261700384 -24.3421789263799 -113.4061569985207 0.0000000000000
373 1 3.3068149543076 -25.7740718044022 -113.4061569985207 0.0000000000000
374 1 4.1335186928845 -24.3421789263799 -111.0678857202007 0.0000000000000
375 1 3.3068149543076 -28.6378575604469 -113.4061569985207 0.0000000000000
376 1 4.1335186928845 -27.2059646824246 -111.0678857202007 0.0000000000000
377 1 1.6534074771538 -28.6378575604469 -111.0678857202007 0.0000000000000
378 1 1.6534074771538 -25.7740718044022 -111.0678857202007 0.0000000000000
379 1 8.2670373857691 -28.6378575604469 -113.4061569985207 0.0000000000000
380 1 8.2670373857691 -25.7740718044022 -113.4061569985207 0.0000000000000
381 1 9.0937411243460 -27.2059646824246 -111.0678857202007 0.0000000000000
382 1 9.0937411243460 -24.3421789263799 -111.0678857202007 0.0000000000000
383 1 6.6136299086153 -25.7740718044022 -111.0678857202007 0.0000000000000
384 1 6.6136299086153 -28.6378575604469 -111.0678857202007 0.0000000000000
385 1 2.4801112157307 -21.4783931703352 -108.7296144418807 0.0000000000000
386 1 2.4801112157307 -18.6146074142905 -108.7296144418807 0.0000000000000
387 1 0.0000000000000 -20.0465002923128 -108.7296144418807 0.0000000000000
388 1 0.8267037385769 -18.6146074142905 -113.4061569985207 0.0000000000000
389 1 0.0000000000000 -22.9102860483576 -115.7444282768408 0.0000000000000
390 1 0.8267037385769 -21.4783931703352 -113.4061569985207 0.0000000000000
391 1 7.4403336471922 -18.6146074142905 -108.7296144418807 0.0000000000000
392 1 7.4403336471922 -21.4783931703352 -108.7296144418807 0.0000000000000
393 1 4.9602224314615 -22.9102860483576 -108.7296144418807 0.0000000000000
394 1 4.9602224314615 -20.0465002923128 -108.7296144418807 0.0000000000000
395 1 5.7869261700384 -21.4783931703352 -113.4061569985207 0.0000000000000
396 1 5.7869261700384 -18.6146074142905 -113.4061569985207 0.0000000000000
397 1 3.3068149543076 -20.0465002923128 -113.4061569985207 0.0000000000000